units real
atom_style full
boundary p p p

# --- Force Field Styles ---
pair_style lj/class2/coul/long 9.5 9.5
kspace_style pppm 1e-4
dielectric 1.000000
bond_style class2
angle_style class2
dihedral_style class2
improper_style class2
special_bonds lj/coul 0 0 1
pair_modify mix sixthpower tail yes
neighbor 2.0 bin
neigh_modify delay 0 every 1 check yes
neigh_modify one 4000
package gpu 1 neigh no

read_data /home/arz2/PolyJarvis/data/PMMA1/lammps/npt_production/npt_production_out.data
Reading data file ...
  orthogonal box = (4.077199 4.077199 4.077199) to (43.965784 43.965784 43.965784)
  2 by 2 by 2 MPI processor grid
  reading atoms ...
  6020 atoms
  reading velocities ...
  6020 velocities
  scanning bonds ...
  4 = max bonds/atom
  scanning angles ...
  6 = max angles/atom
  scanning dihedrals ...
  32 = max dihedrals/atom
  scanning impropers ...
  4 = max impropers/atom
  orthogonal box = (4.077199 4.077199 4.077199) to (43.965784 43.965784 43.965784)
  2 by 2 by 2 MPI processor grid
  reading bonds ...
  6010 bonds
  reading angles ...
  11200 angles
  reading dihedrals ...
  15110 dihedrals
  reading impropers ...
  6800 impropers
Finding 1-2 1-3 1-4 neighbors ...
  special bond factors lj:    0        0        1       
  special bond factors coul:  0        0        1       
     4 = max # of 1-2 neighbors
    11 = max # of 1-3 neighbors
    15 = max # of special neighbors
  special bonds CPU = 0.001 seconds
  read_data CPU = 0.324 seconds
include /home/arz2/PolyJarvis/data/PMMA1/lammps/emc_build.params
# LAMMPS parameters created by EMC v9.4.4, build Jul 31 2025 20:33:44

# Variables

variable	seed		index	-1
variable	ntotal		index	6020
variable	fshape		index	1
variab
CITE-CITE-CITE-CITE-CITE-CITE-CITE-CITE-CITE-CITE-CITE-CITE-CITE

Your simulation uses code contributions which should be cited:
- GPU package (short-range, long-range and three-body potentials): doi:10.1016/j.cpc.2010.12.021, doi:10.1016/j.cpc.2011.10.012, doi:10.1016/j.cpc.2013.08.002, doi:10.1016/j.commatsci.2014.10.068, doi:10.1016/j.cpc.2016.10.020, doi:10.3233/APC200086
The log file lists these citations in BibTeX format.

CITE-CITE-CITE-CITE-CITE-CITE-CITE-CITE-CITE-CITE-CITE-CITE-CITE

PPPM initialization ...
  using 12-bit tables for long-range coulomb
  G vector (1/distance) = 0.24306502
  grid = 15 15 15
  stencil order = 5
  estimated absolute RMS force accuracy = 0.030005241
  estimated relative force accuracy = 9.0359893e-05
  using double precision KISS FFT
  3d grid and FFT values/proc = 2197 512

--------------------------------------------------------------------------
- Using acceleration for pppm:
-  with 8 proc(s) per device.
-  with 1 thread(s) per proc.
-  Horizontal vector operations: ENABLED
-  Shared memory system: No
--------------------------------------------------------------------------
Device 0: Quadro RTX 6000, 72 CUs, 16/24 GB, 1.8 GHZ (Mixed Precision)
--------------------------------------------------------------------------

Initializing Device and compiling on process 0...Done.
Initializing Device 0 on core 0...Done.
Initializing Device 0 on core 1...Done.
Initializing Device 0 on core 2...Done.
Initializing Device 0 on core 3...Done.
Initializing Device 0 on core 4...Done.
Initializing Device 0 on core 5...Done.
Initializing Device 0 on core 6...Done.
Initializing Device 0 on core 7...Done.


--------------------------------------------------------------------------
- Using acceleration for lj/class2/coul/long:
-  with 8 proc(s) per device.
-  with 1 thread(s) per proc.
-  Horizontal vector operations: ENABLED
-  Shared memory system: No
--------------------------------------------------------------------------
Device 0: Quadro RTX 6000, 72 CUs, 16/24 GB, 1.8 GHZ (Mixed Precision)
--------------------------------------------------------------------------

Initializing Device and compiling on process 0...Done.
Initializing Device 0 on core 0...Done.
Initializing Device 0 on core 1...Done.
Initializing Device 0 on core 2...Done.
Initializing Device 0 on core 3...Done.
Initializing Device 0 on core 4...Done.
Initializing Device 0 on core 5...Done.
Initializing Device 0 on core 6...Done.
Initializing Device 0 on core 7...Done.

Generated 15 of 15 mixed pair_coeff terms from sixthpower/sixthpower mixing rule
Neighbor list info ...
  update: every = 1 steps, delay = 0 steps, check = yes
  max neighbors/atom: 4000, page size: 100000
  master list distance cutoff = 11.5
  ghost atom cutoff = 11.5
  binsize = 5.75, bins = 7 7 7
  1 neighbor lists, perpetual/occasional/extra = 1 0 0
  (1) pair lj/class2/coul/long/gpu, perpetual
      attributes: full, newton on
      pair build: full/bin
      stencil: full/bin/3d
      bin: standard
Setting up Verlet run ...
  Unit style    : real
  Current step  : 0
  Time step     : 1
Per MPI rank memory allocation (min/avg/max) = 23.75 | 23.76 | 23.76 Mbytes
   Step          Time           Temp          Press         Enthalpy        TotEng         KinEng         PotEng         E_bond        E_angle        E_dihed        E_impro         E_vdwl         E_coul         E_long         E_tail         Volume           Lx             Ly             Lz          Density          Pxx            Pyy            Pzz      
         0   0              546.74332      352.76735      31323.403      30996.883      9809.393       21187.49       4899.6568      7051.8122     -1280.6424      271.65921      428.6493       27878.24      -18061.886     -395.9947       63466.694      39.888585      39.888585      39.888585      1.0483233     -316.95061     -878.90354      2254.1562    
      1000   1000           544.66584      977.01804      31886.724      30987.495      9772.1198      21215.375      4904.4431      7200.8605     -1285.2623      271.9019       340.04444      27845.113     -18061.726     -398.23855      63109.095      39.813527      39.813527      39.813527      1.0542635      201.10923     -628.41094      3358.3558    
      2000   2000           554.45281     -1683.0387      29650.964      31185.959      9947.7126      21238.246      4998.6186      7178.056      -1286.5607      250.06027      309.97412      27847.816     -18059.718     -401.88174      62536.989      39.692854      39.692854      39.692854      1.0639082     -1263.3921     -3782.8898     -2.834073     
      3000   3000           545.01917     -290.21624      30720.179      30988.831      9778.4592      21210.371      4755.529       7162.8875     -1205.2599      272.108        385.35064      27898.817     -18059.061     -395.95253      63473.452      39.89          39.89          39.89          1.0482117      1405.8019     -1345.3083     -931.14236    
      4000   4000           552.10481      2821.8741      33798.466      31211.383      9905.5862      21305.797      4758.4571      7237.4964     -1261.0615      245.91781      481.49319      27902.943     -18059.449     -399.79594      62863.255      39.761762      39.761762      39.761762      1.0583864      3010.2185      2695.6476      2759.756     
      5000   5000           540.79241     -1910.93        29102.897      30852.346      9702.6247      21149.721      4939.9932      7134.5507     -1300.9078      284.46756      271.19972      27881.548     -18061.13      -400.36378      62774.096      39.742955      39.742955      39.742955      1.0598897     -1174.4798     -2915.4777     -1642.8325    
      6000   6000           551.46997     -1726.9152      29526.13       31108.515      9894.1961      21214.318      4909.5163      7195.8974     -1279.1032      256.65764      311.13215      27876.429     -18056.211     -400.00927      62829.729      39.754692      39.754692      39.754692      1.0589512     -927.60527     -3096.4077     -1156.7326    
      7000   7000           568.13114      525.03726      31755.008      31273.022      10193.122      21079.899      4864.6835      7044.3371     -1247.511       237.26152      365.20888      27877.155     -18061.236     -399.2701       62946.047      39.77921       39.77921       39.77921       1.0569943     -912.33572      923.30999      1564.1375    
      8000   8000           549.74404     -201.02382      30890.782      31074.155      9863.2304      21210.925      4908.6635      7180.2589     -1288.1343      245.82267      345.69162      27881.239     -18062.617     -401.8117       62547.891      39.69516       39.69516       39.69516       1.0637228     -988.93289      179.71242      206.14902    
      9000   9000           536.8597      -872.35597      29869.072      30676.694      9632.066       21044.628      4918.6124      7054.7515     -1255.5382      239.08738      318.32942      27835.796     -18066.411     -395.91047      63480.196      39.891413      39.891413      39.891413      1.0481003     -3348.943       1656.3122     -924.43714    
     10000   10000          557.61735      907.73242      31952.845      31113.199      10004.489      21108.71       4800.9829      7150.468      -1278.5311      280.35762      344.80577      27869.453     -18058.827     -396.25314      63425.301      39.879911      39.879911      39.879911      1.0490075      2080.6218      711.13713     -68.561657    
     11000   11000          547.72718     -88.42192       31131.419      31212.72       9827.0448      21385.675      4916.2751      7175.3989     -1237.963       253.68906      483.59701      27853.453     -18058.775     -398.63291      63046.662      39.800393      39.800393      39.800393      1.0553075      398.09299      184.34597     -847.70471    
     12000   12000          554.60536     -2707.6895      28543.375      31063.322      9950.4497      21112.872      4841.3207      7195.6558     -1273.4024      248.47741      320.24076      27838.246     -18057.666     -393.83889      63814.101      39.961233      39.961233      39.961233      1.0426162     -181.44878     -2889.6964     -5051.9233    
     13000   13000          551.25806      1866.9432      32677.227      30958.716      9890.3941      21068.322      4820.508       7043.4885     -1181.7859      265.23758      326.70464      27857.58      -18063.411     -398.18979      63116.822      39.815152      39.815152      39.815152      1.0541344      3147.4487      785.33065      1668.0503    
     14000   14000          547.74556     -496.08683      30637.225      31089.238      9827.3747      21261.863      4983.6134      7266.4653     -1257.4601      250.69794      202.93496      27871.682     -18056.07      -402.27042      62476.566      39.680066      39.680066      39.680066      1.0649371     -1457.5198     -677.71822      646.97753    
     15000   15000          543.74603      1698.5366      32278.672      30734.473      9755.617       20978.856      4733.9477      7014.7805     -1215.8799      259.97017      367.71351      27877.151     -18058.826     -403.16514      62337.916      39.650691      39.650691      39.650691      1.0673057      3638.5035      1921.5955     -464.48924    
     16000   16000          546.07091      1534.6902      32346.379      30936.143      9797.3289      21138.814      4737.8025      7136.085      -1228.2078      250.15565      415.02515      27880.392     -18052.438     -398.87784      63007.948      39.792245      39.792245      39.792245      1.0559559      618.68283      1603.4535      2381.9344    
     17000   17000          557.97525      1759.0847      32863.565      31228.248      10010.911      21217.337      4875.4197      7094.7786     -1232.4242      249.73757      418.9985       27870.277     -18059.45      -394.27199      63744.001      39.946596      39.946596      39.946596      1.0437628      1703.3868      1821.5905      1752.2769    
     18000   18000          543.51822      1032.495       31768.775      30818.363      9751.5297      21066.833      4829.1667      7152.3359     -1316.4101      255.93852      326.04366      27879.74      -18059.981     -398.18709      63117.251      39.815242      39.815242      39.815242      1.0541273      529.68772      2277.5828      290.21451    
     19000   19000          543.31863     -1059.8656      29973.215      30946.107      9747.9488      21198.158      4962.4387      7129.2327     -1256.4731      262.43858      260.87158      27897.553     -18057.903     -399.2981       62941.632      39.77828       39.77828       39.77828       1.0570685     -148.42476     -2033.9055     -997.26656    
     20000   20000          544.40504     -104.11825      30863.216      30958.829      9767.4407      21191.388      4793.6987      7254.4499     -1294.5788      269.22186      339.29042      27888.038     -18058.732     -399.13675      62967.076      39.783639      39.783639      39.783639      1.0566413      198.97425     -888.83708      377.50808    
     21000   21000          544.37205      1006.038       31999.27       31072.886      9766.8489      21306.038      4884.2598      7287.4376     -1273.3213      255.70721      330.31166      27877.311     -18055.668     -398.04721      63139.431      39.819905      39.819905      39.819905      1.053757      -250.52208      2014.0949      1254.5411    
     22000   22000          544.05017      188.21524      30923.116      30748.868      9761.0738      20987.794      4759.2616      7119.5195     -1282.9726      248.81396      352.40879      27849.267     -18058.504     -395.91086      63480.134      39.8914        39.8914        39.8914        1.0481014      1169.7759     -899.3427       294.21255    
     23000   23000          540.52642     -2309.3759      28654.91       30770.656      9697.8524      21072.804      4892.6912      7157.4785     -1234.8492      247.72286      227.71505      27843.653     -18061.607     -400.07574      62819.291      39.752491      39.752491      39.752491      1.0591271     -3206.8328     -1695.1767     -2026.1183    
     24000   24000          552.12453      188.60747      31423.099      31248.995      9905.9399      21343.055      4923.6019      7178.4411     -1270.4494      267.84343      387.08625      27912.849     -18056.317     -397.06501      63295.616      39.852712      39.852712      39.852712      1.0511568     -650.71421     -263.09066      1479.6273    
     25000   25000          540.77756     -1281.1157      29659.301      30837.703      9702.3583      21135.345      4870.807       7195.5479     -1302.7353      248.44348      310.43995      27870.176     -18057.334     -398.47931      63070.965      39.805507      39.805507      39.805507      1.0549009      1390.1094     -1357.8264     -3875.6303    
     26000   26000          538.70798     -697.97431      30236.699      30880.221      9665.2268      21214.994      4878.1197      7145.4859     -1274.0764      252.55037      389.21334      27879.583     -18055.881     -397.54578      63219.069      39.83664       39.83664       39.83664       1.0524295      1355.9874     -1809.1319     -1640.7784    
     27000   27000          542.38262      2702.8788      33340.435      30868.674      9731.1554      21137.518      4926.1139      7092.3841     -1363.0507      271.92087      402.24579      27872.75      -18064.845     -400.80315      62705.281      39.728427      39.728427      39.728427      1.0610528      4300.8604      3066.8556      740.92049    
     28000   28000          545.93525     -54.462139      30929.511      30979.981      9794.8949      21185.086      4996.794       7149.9686     -1310.8817      246.50057      277.52829      27887.019     -18061.843     -395.52433      63542.169      39.90439       39.90439       39.90439       1.0470781     -1068.6773      1127.8333     -222.54243    
     29000   29000          541.0687       1358.8231      31921.643      30665.315      9707.5818      20957.734      4666.0297      7037.6882     -1248.0864      232.60703      458.07946      27874.188     -18062.773     -396.43426      63396.323      39.873836      39.873836      39.873836      1.049487      -79.929925      1706.2224      2450.1769    
     30000   30000          544.45248      560.27344      31238.617      30729.966      9768.2918      20961.675      4733.2839      7105.3798     -1273.3864      256.64764      332.36032      27868.805     -18061.415     -403.73079      62250.577      39.632165      39.632165      39.632165      1.0688032      445.4042       1862.6749     -627.25883    
     31000   31000          539.02238      218.07541      31090.576      30889.062      9670.8676      21218.194      4771.0585      7222.9574     -1242.2144      241.71212      380.04036      27903         -18058.36      -396.65421      63361.168      39.866465      39.866465      39.866465      1.0500693      92.084542      364.81357      197.32811    
     32000   32000          540.24087      1149.4106      32151.288      31099.938      9692.7292      21407.209      4927.7291      7279.0499     -1297.613       255.14263      420.86655      27880.421     -18058.387     -400.71832      62718.556      39.731231      39.731231      39.731231      1.0608283      729.27964      1719.427       999.52517    
     33000   33000          541.24844     -719.11493      30260.334      30919.232      9710.8066      21208.425      4994.4869      7116.354      -1253.9706      243.04989      312.38175      27852.139     -18056.015     -400.02902      62826.628      39.754038      39.754038      39.754038      1.0590034     -4092.2865      1043.7176      891.22407    
     34000   34000          538.96574      79.152555      30757.4        30684.564      9669.8516      21014.712      4831.831       7115.1908     -1342.1299      242.56975      357.31482      27869.538     -18059.602     -398.31935      63096.292      39.810834      39.810834      39.810834      1.0544774      71.038681     -1157.9876      1324.4066    
     35000   35000          545.05298     -413.15228      30511.891      30887.426      9779.0658      21108.361      4865.4681      7213.5894     -1242.0535      258.97463      219.86685      27851.1       -18058.585     -403.24635      62325.362      39.648029      39.648029      39.648029      1.0675207     -527.78646      64.855876     -776.52627    
     36000   36000          544.53645      309.40315      31126.967      30841.803      9769.7983      21072.005      4816.5718      7187.7119     -1290.0416      243.99316      277.08745      27889.781     -18053.099     -397.68716      63196.595      39.831919      39.831919      39.831919      1.0528038      379.71577      387.17245      161.32124    
     37000   37000          545.37237      531.9466       31152.008      30667.546      9784.7961      20882.75       4803.8848      6995.2966     -1286.9861      259.9038       280.95941      27883.256     -18053.565     -402.45702      62447.598      39.673932      39.673932      39.673932      1.0654311     -2447.4355      3216.184       827.09126    
     38000   38000          543.72382      918.74027      31782.014      30945.171      9755.2186      21189.952      4781.7585      7218.2679     -1273.9264      247.96142      394.97845      27877.469     -18056.556     -402.40199      62456.139      39.675741      39.675741      39.675741      1.0652854      690.6926       731.56322      1333.965     
     39000   39000          534.06398      115.37062      30802.941      30697.666      9581.9066      21115.76       4821.8799      7122.3137     -1219.129       266.87253      327.97519      27853.497     -18057.649     -401.68113      62568.223      39.699461      39.699461      39.699461      1.0633771      157.32297      43.368154      145.42074    
     40000   40000          545.02857     -579.69228      30320.703      30857.44       9778.6277      21078.812      4896.9304      7135.8744     -1228.8843      227.63982      209.89491      27894.598     -18057.241     -395.86545      63487.416      39.892925      39.892925      39.892925      1.0479812     -1385.0839      138.61364     -492.60657    
     41000   41000          544.25515      1614.5681      32367.496      30893.276      9764.7514      21128.525      4862.6342      7088.6011     -1273.1464      244.14991      375.33742      27888.152     -18057.203     -401.42583      62608.015      39.707875      39.707875      39.707875      1.0627012      1862.7952      1744.2125      1236.6965    
     42000   42000          543.8181       1653.1826      32218.253      30701.426      9756.9102      20944.516      4827.7371      7004.5353     -1270.0938      255.27171      309.90641      27878.15      -18060.991     -399.48095      62912.823      39.77221       39.77221       39.77221       1.0575525     -247.30658      4175.3497      1031.5046    
     43000   43000          535.93568      68.529027      30718.719      30655.75       9615.4878      21040.263      4805.1006      7032.4994     -1268.701       264.64973      372.54107      27895.107     -18060.934     -398.90059      63004.354      39.791489      39.791489      39.791489      1.0560162     -420.25089      958.40483     -332.56686    
     44000   44000          548.45488     -603.97237      30455.476      31013.254      9840.1009      21173.153      4913.3686      7059.608      -1265.102       271.47809      384.83339      27869.034     -18060.068     -396.88735      63323.949      39.858657      39.858657      39.858657      1.0506865     -690.11103     -941.14804     -180.65804    
     45000   45000          542.71936      329.62495      31095.05       30791.105      9737.1971      21053.908      4800.209       7151.2384     -1362.8105      267.42064      359.29168      27895.59      -18057.031     -397.49961      63226.413      39.838182      39.838182      39.838182      1.0523073     -410.30398      2555.7196     -1156.5407    
     46000   46000          542.32203     -159.85601      30610.565      30757.55       9730.0683      21027.481      4828.7179      7041.2723     -1214.7603      242.54726      341.77204      27844.848     -18056.916     -398.62894      63047.289      39.800526      39.800526      39.800526      1.055297       2706.5787     -163.05881     -3023.088     
     47000   47000          533.72507      1310.9941      31750.934      30551.159      9575.826       20975.333      4803.9252      7158.5861     -1289.1983      230.18451      267.46384      27870.004     -18065.632     -400.50906      62751.326      39.738149      39.738149      39.738149      1.0602743      521.25584      3448.635      -36.908507    
     48000   48000          539.27781      2157.4324      32671.317      30716.106      9675.4504      21040.655      4818.6723      7103.1938     -1238.6063      251.88511      315.59604      27847.625     -18057.711     -404.44049      62141.341      39.608969      39.608969      39.608969      1.070682       992.68561      730.17248      4749.4391    
     49000   49000          534.87309      810.42641      31261.586      30510.712      9596.4233      20914.289      4781.4239      7063.4357     -1276.4688      267.50303      244.18535      27893.187     -18058.977     -395.60106      63529.846      39.90181       39.90181       39.90181       1.0472812      510.94275      141.39824      1778.9382    
     50000   50000          546.0675      -224.94925      30610.489      30817.014      9797.2676      21019.746      4736.2591      7095.6305     -1233.5112      258.26122      370.74028      27855.467     -18063.101     -399.23027      62952.326      39.780533      39.780533      39.780533      1.0568889      666.72917      1782.3505     -3123.9274    
     51000   51000          533.93726     -5.858654       30270.643      30276.066      9579.6331      20696.433      4724.9908      6950.2928     -1306.1324      236.68759      293.95494      27859.393     -18062.754     -395.9737       63470.06       39.88929       39.88929       39.88929       1.0482677      456.3927       4.3985834     -478.36725    
     52000   52000          539.94503      1904.945       32478.063      30720.905      9687.4215      21033.483      4758.8038      7096.5966     -1336.999       266.2587       421.03571      27888.867     -18061.079     -397.35873      63248.829      39.84289       39.84289       39.84289       1.0519343      2243.4724      3465.3104      6.0520779    
     53000   53000          544.29529     -1617.3999      29198.887      30675.034      9765.4715      20909.563      4782.4748      7089.2629     -1307.7216      267.69181      257.63587      27880.397     -18060.178     -401.60462      62580.142      39.701981      39.701981      39.701981      1.0631746     -1514.6476     -3703.9153      366.36314    
     54000   54000          534.87411     -527.61236      30079.05       30564.363      9596.4415      20967.921      4747.5828      7046.7241     -1251.7762      278.29831      305.93699      27901.61      -18060.455     -398.47772      63071.216      39.80556       39.80556       39.80556       1.0548967     -2166.6394      1229.5443     -645.742      
     55000   55000          538.2225      -297.08993      30522.066      30793.153      9656.5167      21136.636      4854.9094      7130.124      -1270.9106      260.19606      336.80588      27883.785     -18058.274     -401.69043      62566.774      39.699154      39.699154      39.699154      1.0634017      1517.1429     -2311.3009     -97.111775    
     56000   56000          529.57604      2389.6477      32629.907      30444.265      9501.3863      20942.879      4634.2171      7009.4661     -1243.4499      268.92155      451.71838      27880.678     -18058.673     -400.74293      62714.704      39.730417      39.730417      39.730417      1.0608934      1990.5214      2425.4356      2752.986     
     57000   57000          530.16496     -534.54245      30165.051      30652.434      9511.9524      21140.482      4929.7205      7094.435      -1223.957       255.00034      247.5559       27889.002     -18051.275     -401.99736      62519.004      39.689048      39.689048      39.689048      1.0642143     -196.17894     -674.33943     -733.10898    
     58000   58000          536.12654     -900.00834      29800.842      30627.972      9618.912       21009.061      4777.6077      7123.138      -1268.5966      231.53204      319.02947      27885.3       -18058.95      -398.82639      63016.076      39.793956      39.793956      39.793956      1.0558197     -2955.7768      457.84569     -202.09391    
     59000   59000          530.43625     -496.11362      29995.112      30444.268      9516.8196      20927.448      4826.6915      7056.0781     -1307.9008      249.06385      300.57715      27857.652     -18054.714     -404.85078      62078.364      39.595584      39.595584      39.595584      1.0717682      812.62791     -877.94314     -1423.0256    
     60000   60000          530.42283     -1427.1602      29096.091      30398.059      9516.579       20881.48       4882.4795      6972.9557     -1258.7767      255.93414      209.79522      27875.182     -18056.09      -401.77575      62553.487      39.696344      39.696344      39.696344      1.0636276     -2204.4113     -931.07629     -1145.993     
     61000   61000          539.33626      1352.2842      31821.694      30601.313      9676.4992      20924.814      4692.0048      7079.704      -1313.4892      258.70112      360.77677      27897.469     -18050.352     -406.1476       61880.15       39.553397      39.553397      39.553397      1.0752013      545.72223      944.41975      2566.7107    
     62000   62000          528.06315      109.38337      30506.242      30406.061      9474.2427      20931.819      4751.4206      7061.9758     -1290.8836      234.03826      309.03519      27923.408     -18057.176     -400.20235      62799.417      39.748298      39.748298      39.748298      1.0594623     -941.09092      1442.0786     -172.83758    
     63000   63000          527.32582     -90.917242      30296.676      30379.87       9461.0139      20918.856      4723.7223      7211.6248     -1332.7632      222.02672      243.25434      27903.65      -18052.66      -400.55962      62743.404      39.736477      39.736477      39.736477      1.0604081     -1384.4901      1194.9055     -83.167127    
     64000   64000          538.92317      667.30195      31244.02       30632.364      9669.0878      20963.276      4708.8556      7118.7699     -1264.8089      247.98225      308.06108      27897.779     -18053.363     -399.87669      62850.561      39.759085      39.759085      39.759085      1.0586002      453.72907      419.40756      1128.7692    
     65000   65000          536.81387     -1452.8172      29158.882      30486.047      9631.2438      20854.804      4767.4037      7024.8129     -1250.295       261.28455      262.07075      27849.12      -18059.593     -401.23336      62638.048      39.714223      39.714223      39.714223      1.0621917     -3400.4686     -1065.166       107.18304    
     66000   66000          536.54909      251.15528      30761.811      30528.492      9626.4932      20901.999      4794.811       7011.7864     -1288.6749      255.61347      287.77737      27896.378     -18055.693     -394.55161      63698.826      39.937157      39.937157      39.937157      1.044503       420.19761     -992.90303      1326.1713    
     67000   67000          535.66576      1364.3567      31724.722      30470.924      9610.6449      20860.279      4738.3617      6964.4089     -1312.7855      265.73155      366.95576      27892.629     -18055.022     -398.85165      63012.085      39.793116      39.793116      39.793116      1.0558866      1606.0471      1489.1904      997.83267    
     68000   68000          528.80286      806.70191      31178.382      30436.257      9487.5142      20948.743      4697.1932      7146.266      -1321.5016      254.97553      344.6088       27883.459     -18056.258     -398.42584      63079.428      39.807287      39.807287      39.807287      1.0547593     -539.95365      2558.386       401.67333    
     69000   69000          536.33993      1345.828       31768.311      30539.319      9622.7405      20916.579      4716.2055      7106.3557     -1272.8693      240.1756       316.2955       27871.029     -18060.613     -401.37643      62615.72       39.709504      39.709504      39.709504      1.0625705      405.09674      1913.4299      1718.9573    
     70000   70000          537.42326     -967.78588      29649.319      30528.987      9642.1771      20886.81       4833.7619      7102.403      -1342.8009      273.66205      184.08537      27885.655     -18049.957     -403.24757      62325.173      39.647989      39.647989      39.647989      1.067524      -2263.0878      1420.0032     -2060.2731    
     71000   71000          532.53574      103.39065      30301.895      30206.524      9554.4877      20652.036      4581.327       7060.9916     -1326.3889      244.21726      256.48934      27895.356     -18059.956     -397.35038      63250.158      39.843169      39.843169      39.843169      1.0519122      43.973836     -444.28454      710.48264    
     72000   72000          534.72186      925.51451      31293.52       30450.131      9593.7099      20856.421      4796.7356      6985.6257     -1308.8178      260.72864      303.70268      27875.63      -18057.183     -402.22283      62483.958      39.681631      39.681631      39.681631      1.0648112     -1787.4338      2563.0173      2000.96      
     73000   73000          524.03752      1797.7155      31986.09       30341.976      9402.0169      20939.959      4764.4655      7028.5207     -1266.9173      244.10787      335.01413      27890         -18055.232     -400.77463      62709.743      39.72937       39.72937       39.72937       1.0609773      2276.1129      1383.963       1733.0706    
     74000   74000          537.76657      29.344623      30621.558      30594.661      9648.3365      20946.324      4743.9698      7083.0096     -1304.9828      263.74979      338.12452      27884.562     -18062.108     -399.87719      62850.482      39.759069      39.759069      39.759069      1.0586015      268.7639      -704.91285      524.18282    
     75000   75000          536.01989      2849.7996      33236.414      30643.585      9616.9985      21026.586      4747.9703      7024.4121     -1240.3932      279.78566      411.93729      27866.187     -18063.313     -402.8576       62385.504      39.660778      39.660778      39.660778      1.0664916      3589.9563      5091.773      -132.33046    
     76000   76000          527.15325     -164.34733      30193.139      30345.513      9457.9178      20887.595      4827.2428      6942.8348     -1247.5261      231.84249      291.75155      27903.514     -18062.064     -395.33291      63572.937      39.91083       39.91083       39.91083       1.0465714     -174.8951       23.638745     -341.78565    
     77000   77000          535.71648     -258.62244      30373.218      30609.695      9611.5549      20998.14       4756.9521      7081.8026     -1211.8721      269.32499      286.22349      27873.546     -18057.837     -400.85622      62696.979      39.726674      39.726674      39.726674      1.0611933     -681.1308       124.63476     -219.37128    
     78000   78000          526.02109     -959.18477      29431.746      30309.779      9437.6052      20872.174      4838.4322      6986.0979     -1320.9484      236.2393       335.76456      27853.636     -18057.048     -400.40789      62767.18       39.741495      39.741495      39.741495      1.0600065     -2860.822       1259.9197     -1276.6521    
     79000   79000          528.15243      58.307481      30557.5        30503.508      9475.8446      21027.664      4714.066       7202.5699     -1285.076       240.02747      302.45528      27907.075     -18053.454     -395.83076      63492.979      39.89409       39.89409       39.89409       1.0478893      428.62557     -755.28793      501.5848     
     80000   80000          536.3632       2406.6741      32850.192      30650.739      9623.1581      21027.581      4835.9447      6942.2294     -1271.9797      278.5921       407.2701       27888.598     -18053.073     -401.06405      62664.491      39.719811      39.719811      39.719811      1.0617435      1113.1344      3123.6061      2983.2818    
     81000   81000          528.46108      207.58164      30494.022      30300.93       9481.3822      20819.547      4703.3483      7011.9268     -1292.1324      270.87227      306.32591      27874.751     -18055.545     -394.03512      63782.32       39.954599      39.954599      39.954599      1.0431357      1157.9663      547.80655     -1083.0279    
     82000   82000          527.72312      1001.1053      31345.462      30433.669      9468.142       20965.527      4748.0097      7034.1442     -1210.7862      254.74402      325.64347      27866.147     -18052.376     -402.4337       62451.217      39.674699      39.674699      39.674699      1.0653694      907.17331      2301.4719     -205.32938    
     83000   83000          531.34338      125.85046      30521.497      30406.712      9533.095       20873.617      4669.8846      7045.839      -1268.6314      253.30633      321.83621      27906.901     -18055.519     -401.86729      62539.239      39.69333       39.69333       39.69333       1.0638699     -1850.1863      2754.3234     -526.58571    
     84000   84000          524.73469     -1359.2016      29051.238      30286.409      9414.5252      20871.884      4681.1947      7167.7915     -1334.705       234.16731      293.59292      27886.154     -18056.311     -403.33668      62311.403      39.645069      39.645069      39.645069      1.0677599     -1468.788      -1525.1728     -1083.644     
     85000   85000          532.30353      14.481632      30596.045      30582.768      9550.3215      21032.446      4889.3758      6919.1619     -1242.4661      269.77717      364.14472      27889.278     -18056.825     -399.77373      62866.747      39.762498      39.762498      39.762498      1.0583276     -544.16252      1360.4419     -772.83447    
     86000   86000          527.15297     -1289.7642      29110.95       30299.342      9457.9127      20841.43       4782.3904      6992.4166     -1216.4762      271.19011      188.72305      27878.847     -18055.662     -397.79713      63179.123      39.828248      39.828248      39.828248      1.0530949     -1590.2155     -1785.011      -494.06611    
     87000   87000          526.14811     -1586.1953      28813.966      30255.894      9439.8841      20816.01       4652.4413      7091.497      -1281.6449      240.61264      301.44766      27866.024     -18054.368     -403.20348      62331.987      39.649434      39.649434      39.649434      1.0674073     -1749.0605     -2475.6986     -533.82686    
     88000   88000          523.13783     -1513.7436      29071.988      30463.495      9385.8752      21077.62       4895.3834      7066.069      -1277.4813      265.73363      296.24296      27884.947     -18053.275     -398.72933      63031.416      39.797185      39.797185      39.797185      1.0555628     -797.60913     -1016.6382     -2726.9836    
     89000   89000          532.36132      240.0402       30750.538      30530.257      9551.3583      20978.899      4706.2905      7130.1197     -1282.2108      247.59437      331.09095      27897.847     -18051.833     -399.40916      62924.131      39.774593      39.774593      39.774593      1.0573625      14.347899      2730.839      -2025.0663    
     90000   90000          532.18035      618.5293       31041.549      30465.208      9548.1115      20917.096      4741.3756      6971.3223     -1264.4416      253.8832       376.92747      27893.617     -18055.587     -393.3612       63891.595      39.977403      39.977403      39.977403      1.0413516      165.87438     -216.00019      1905.7137    
     91000   91000          528.49345      352.69382      30808.592      30484.459      9481.963       21002.496      4782.4748      7060.6687     -1262.2122      252.69766      325.09829      27900.088     -18056.319     -398.82835      63015.766      39.793891      39.793891      39.793891      1.0558249     -642.61979      2198.5281     -497.82681    
     92000   92000          532.82688      610.98295      30921.05       30355.418      9559.7113      20795.707      4768.0047      6922.1758     -1318.4215      256.90486      339.26002      27887.677     -18059.894     -395.91936      63478.771      39.891114      39.891114      39.891114      1.0481239     -910.49765      770.29892      1973.1476    
     93000   93000          535.07674     -237.26968      30215.985      30433.701      9600.077       20833.624      4851.3056      6997.8043     -1373.4535      251.70436      262.53328      27896.712     -18052.983     -399.4501       62917.682      39.773234      39.773234      39.773234      1.0574709     -464.47228      12.52136      -259.85812    
     94000   94000          523.34798      1760.4585      31972.035      30345.463      9389.6454      20955.818      4624.6177      7070.0028     -1287.1919      271.06229      433.82763      27899.846     -18056.347     -396.70122      63353.66       39.86489       39.86489       39.86489       1.0501937      2769.7601     -565.1351       3076.7505    
     95000   95000          532.37956      2472.2229      32766.282      30485.076      9551.6855      20933.391      4680.2565      7037.4666     -1277.6966      259.82187      416.65137      27873.83      -18056.939     -397.22294      63270.45       39.847429      39.847429      39.847429      1.0515749      2300.2016      3098.5189      2017.9483    
     96000   96000          520.7193      -607.57735      29713.607      30271.894      9342.4831      20929.411      4631.3396      7053.6981     -1275.0161      282.96301      396.72554      27893.622     -18053.921     -398.89137      63005.811      39.791795      39.791795      39.791795      1.0559917     -1046.5095     -1218.3481      442.12557    
     97000   97000          524.82999      97.224571      30208.337      30119.591      9416.235       20703.356      4791.2153      6878.636      -1340.5325      254.12007      288.62024      27886.137     -18054.84      -401.54992      62588.667      39.703784      39.703784      39.703784      1.0630298      884.90513     -701.39192      108.16051    
     98000   98000          520.2527       102.84048      30455.362      30360.384      9334.1116      21026.273      4808.8702      7073.6521     -1281.3995      245.56324      312.20228      27923.214     -18055.83      -396.87462      63325.98       39.859083      39.859083      39.859083      1.0506528      449.01789      267.84629     -408.34273    
     99000   99000          532.90052     -150.93475      30142.172      30280.179      9561.0323      20719.147      4798.3258      6878.7178     -1296.8419      267.56188      223.06074      27898.141     -18049.818     -400.8644       62695.7        39.726404      39.726404      39.726404      1.061215      -1037.8228      147.01305      438.00554    
    100000   100000         524.28378      903.20757      31054.176      30232.933      9406.4352      20826.497      4628.486       7056.7344     -1313.8577      260.28143      354.51886      27896.589     -18056.254     -403.1132       62345.947      39.652394      39.652394      39.652394      1.0671683      2476.0576     -15.978327      249.5434     
    101000   101000         520.58384      615.54199      30573.193      30012.714      9340.0526      20672.662      4795.5312      6966.7788     -1330.9072      232.52111      195.68745      27867.574     -18054.524     -402.54051      62434.646      39.671189      39.671189      39.671189      1.0656522      1134.2977     -947.32744      1659.6557    
    102000   102000         514.88448     -24.943557      29890.617      29913.357      9237.7977      20675.56       4559.1943      7025.0107     -1297.9558      280.92733      296.3327       27867.521     -18055.47      -402.03786      62512.705      39.687715      39.687715      39.687715      1.0643215      1013.2989      214.64396     -1302.7735    
    103000   103000         526.67032     -942.22025      29513.657      30377.919      9449.2533      20928.666      4810.7348      6995.1025     -1221.6245      223.26297      326.48901      27851.917     -18057.216     -399.59294      62895.19       39.768494      39.768494      39.768494      1.057849       420.38133     -1826.8952     -1420.1469    
    104000   104000         529.21044     -1527.0549      28800.746      30198.433      9494.8269      20703.606      4689.9898      7021.8036     -1273.938       224.89762      215.64437      27878.623     -18053.415     -400.45704      62759.476      39.73987       39.73987       39.73987       1.0601366      300.14966     -2651.4411     -2229.8734    
    105000   105000         522.26131      1092.1278      31045.321      30065.386      9370.149       20695.237      4717.2088      6973.6002     -1290.861       231.38487      253.86699      27858.284     -18048.247     -408.49555      61524.476      39.47747       39.47747       39.47747       1.081417       1125.9864      975.82779      1174.5691    
    106000   106000         527.83756     -289.2974       29897.5        30158.877      9470.1953      20688.682      4658.9505      7023.1615     -1291.0985      261.04218      202.23347      27889.626     -18055.234     -405.6838       61950.894      39.568464      39.568464      39.568464      1.0739734     -964.09439      102.74659     -6.5443933    
    107000   107000         518.08423      1488.6966      31418.641      30053.384      9295.206       20758.178      4680.7413      6930.0629     -1282.8969      253.95728      366.64131      27867.188     -18057.516     -399.67102      62882.903      39.765904      39.765904      39.765904      1.0580557      1038.1864     -374.92705      3802.8305    
    108000   108000         522.67471      651.7926       30620.789      30034.554      9377.5661      20656.988      4669.112       6950.7453     -1306.7321      255.34802      280.95176      27867.563     -18059.999     -407.52021      61671.725      39.508939      39.508939      39.508939      1.078835       317.28326      177.49371      1460.6008    
    109000   109000         516.67799     -1049.2061      29166.119      30121.475      9269.9759      20851.499      4855.8059      7005.1971     -1330.6701      250.33055      293.73055      27837.295     -18060.19      -402.53793      62435.047      39.671274      39.671274      39.671274      1.0656453     -2039.7945     -977.62995     -130.19378    
    110000   110000         517.40071     -157.78834      29843.717      29987.176      9282.9426      20704.233      4723.4602      6973.895      -1282.9534      252.86408      207.77104      27881.515     -18052.319     -403.14079      62341.68       39.651489      39.651489      39.651489      1.0672413      540.18678     -2378.7881      1365.2363    
    111000   111000         520.14655     -1118.1404      29168.364      30189.24       9332.2071      20857.033      4623.5179      7025.2498     -1196.2278      250.5693       296.07864      27918.375     -18060.53      -401.45306      62603.768      39.706977      39.706977      39.706977      1.0627733     -18.960094     -2892.9195     -442.5415     
    112000   112000         513.05824      591.57886      30318.196      29783.099      9205.0322      20578.067      4757.131       6803.7581     -1297.6186      288.39094      225.65991      27859.783     -18059.037     -405.22047      62021.729      39.583539      39.583539      39.583539      1.0727469      1205.588      -782.06523      1351.2138    
    113000   113000         526.45867     -309.98635      29895.417      30179.286      9445.4559      20733.83       4732.5731      7002.4502     -1323.1401      245.67341      244.88984      27887.495     -18056.111     -400.25368      62791.364      39.746599      39.746599      39.746599      1.0595982     -167.81375     -586.67179     -175.47353    
    114000   114000         524.19345      377.79204      30417.652      30073.455      9404.8146      20668.64       4654.0864      6895.7135     -1228.5907      251.90959      272.45538      27880.119     -18057.053     -402.30646      62470.969      39.678881      39.678881      39.678881      1.0650326      1684.8308     -782.36583      230.91111    
    115000   115000         523.49801     -525.12802      29542.009      30019.035      9392.3374      20626.698      4722.1284      6993.3611     -1287.7539      240.41688      176.9878       27845.833     -18064.276     -403.49153      62287.49       39.639997      39.639997      39.639997      1.0681698      633.40954     -825.30106     -1383.4925    
    116000   116000         513.17144     -998.15196      28928.726      29844.314      9207.0631      20637.251      4705.9955      6899.0458     -1317.4252      250.2271       284.5062       27874.305     -18059.404     -399.58345      62896.685      39.768809      39.768809      39.768809      1.0578239     -30.42123      -2721.1715     -242.86314    
    117000   117000         519.55373      272.50834      30255.359      30008.146      9321.571       20686.575      4649.6127      6909.3472     -1180.5664      230.50733      255.42735      27883.462     -18061.215     -404.0362       62203.521      39.622176      39.622176      39.622176      1.0696117      668.08397     -367.76256      517.2036     
    118000   118000         528.52661      1168.3116      31141.266      30082.027      9482.5578      20599.469      4646.0409      6936.543      -1287.739       268.4192       236.13184      27858.302     -18058.229     -404.27392      62166.945      39.614408      39.614408      39.614408      1.070241       891.50646      1909.0343      704.394      
    119000   119000         518.52197      2139.2108      31805.601      29877.539      9303.0597      20574.479      4527.1293      7024.0462     -1342.6971      263.54365      279.1955       27884.38      -18061.119     -406.67138      61800.45       39.536408      39.536408      39.536408      1.0765879      1104.4453      3445.8066      1867.3805    
    120000   120000         516.791        367.54057      30208.83       29872.682      9272.0035      20600.678      4752.1698      6833.9061     -1298.2116      238.89525      261.11705      27873.484     -18060.682     -400.76063      62711.935      39.729832      39.729832      39.729832      1.0609402      1985.5609     -163.13376     -719.80538    
    121000   121000         521.09876      1535.7375      31527.642      30131.29       9349.2912      20781.998      4643.1832      7005.1435     -1324.2814      252.3308       383.66236      27877.257     -18055.297     -403.11883      62345.077      39.652209      39.652209      39.652209      1.0671831      1541.5228      665.57526      2400.1144    
    122000   122000         518.79268      410.98437      30400.682      30028.595      9307.9167      20720.678      4565.5511      7112.0628     -1246.4666      268.00731      210.3596       27867.154     -18055.989     -404.84802      62078.788      39.595674      39.595674      39.595674      1.0717609     -8.5078572      1724.9788     -483.51785    
    123000   123000         519.06721      254.00063      30078.058      29844.205      9312.8421      20531.363      4642.4822      6923.6269     -1367.7737      257.91527      252.27424      27882.252     -18059.415     -398.10861      63129.693      39.817858      39.817858      39.817858      1.0539195      153.02414     -132.39329      741.37104    
    124000   124000         521.98464      621.98838      30767.601      30204.374      9365.1852      20839.189      4782.0813      7057.7107     -1331.4929      236.38593      247.2964       27904.64      -18057.432     -404.77121      62090.568      39.598179      39.598179      39.598179      1.0715575      3427.4594     -1983.205       421.71079    
    125000   125000         511.80818      252.48956      30062.312      29832.458      9182.6043      20649.853      4704.5514      6949.9033     -1321.1172      237.17656      260.72183      27877.265     -18058.648     -402.62518      62421.516      39.668408      39.668408      39.668408      1.0658763      720.94657      305.10774     -268.58563    
    126000   126000         521.32517      808.26073      30767.305      30028.902      9353.3533      20675.549      4536.1615      6989.4146     -1221.7845      240.02683      303.01079      27886.355     -18057.636     -401.20769      62642.055      39.71507       39.71507       39.71507       1.0621238     -210.40154      2794.1192     -158.93546    
    127000   127000         513.85895      2509.2604      31996.367      29737.436      9219.3981      20518.037      4514.6909      6971.6376     -1341.4663      250.74295      298.95313      27876.771     -18053.292     -407.1494       61727.892      39.520929      39.520929      39.520929      1.0778534      2134.7089      1911.1584      3481.914     
    128000   128000         521.92187     -1257.2341      28898.99       30054.806      9364.059       20690.747      4582.9529      6959.9388     -1251.5924      255.64112      356.69504      27845.022     -18057.91      -398.69302      63037.156      39.798393      39.798393      39.798393      1.0554666     -2192.6018     -223.68052     -1355.42      
    129000   129000         527.60406      822.82453      30574.226      29830.635      9466.0059      20364.629      4527.391       6833.9579     -1336.1466      236.39496      264.71638      27892.813     -18054.497     -405.58723      61965.645      39.571604      39.571604      39.571604      1.0737178     -586.89432      1102.1925      1953.1754    
    130000   130000         522.37404      775.02499      30788.698      30077.633      9372.1715      20705.462      4656.2456      6934.047      -1326.647       251.72937      380.76949      27871.556     -18062.238     -399.50101      62909.664      39.771544      39.771544      39.771544      1.0576057      3146.531       1261.3277     -2082.7837    
    131000   131000         522.49386      567.89252      30531.248      30014.185      9374.3214      20639.863      4523.8204      7088.4644     -1312.0641      255.64209      253.2352       27889.777     -18059.012     -402.56324      62431.121      39.670443      39.670443      39.670443      1.0657123      670.81881      304.63088      728.22786    
    132000   132000         510.90629     -332.4369       29510.268      29810.238      9166.423       20643.815      4577.652       7095.001      -1338.6219      262.74568      249.33236      27858.4       -18060.694     -406.20225      61871.825      39.551623      39.551623      39.551623      1.0753459      10.986325      373.89852     -1382.1955    
    133000   133000         521.79413      228.23325      30134.825      29925.963      9361.7671      20564.196      4613.612       6919.0745     -1325.508       286.21226      279.66147      27853.133     -18061.989     -400.52699      62748.516      39.737556      39.737556      39.737556      1.0603217      345.97163      1524.1181     -1185.39      
    134000   134000         512.67637      733.95466      30476.428      29805.53       9198.1808      20607.349      4706.635       6967.6686     -1306.3704      240.06882      159.45623      27897.327     -18057.436     -400.98106      62677.459      39.722551      39.722551      39.722551      1.0615238      566.60222      928.22477      707.03699    
    135000   135000         519.80902      0.032055478    30003.577      30003.547      9326.1514      20677.396      4619.596       6943.1529     -1295.0046      255.37493      300.94323      27906.746     -18053.413     -399.2358       62951.455      39.780349      39.780349      39.780349      1.0569035      51.100366     -1315.4001      1264.3959    
    136000   136000         514.19425      2373.373       31921.664      29770.088      9225.414       20544.674      4571.9812      6938.9142     -1289.045       252.60054      263.76879      27868.705     -18062.25      -404.31556      62160.542      39.613048      39.613048      39.613048      1.0703513      460.62586      3273.4817      3386.0114    
    137000   137000         512.98964     -432.15939      29287.795      29682.988      9203.8014      20479.187      4580.0501      6968.1795     -1342.209       258.21104      210.26922      27862.136     -18057.45      -400.81598      62703.274      39.728003      39.728003      39.728003      1.0610868     -1175.1469     -67.217618     -54.113694    
    138000   138000         519.12228     -1782.9296      28271.891      29899.531      9313.8302      20585.7        4690.1217      6900.4632     -1257.6636      242.19812      208.57273      27859.882     -18057.874     -401.50131      62596.245      39.705386      39.705386      39.705386      1.0629011     -2212.7167     -1711.7606     -1424.3114    
    139000   139000         503.46611      275.08452      29666.65       29415.921      9032.9351      20382.986      4467.7909      6884.269      -1300.4098      250.80639      266.56596      27871.831     -18057.868     -402.1348       62497.636      39.684526      39.684526      39.684526      1.0645781      615.87402     -980.75214      1190.1317    
    140000   140000         525.57482      2018.8874      31772.651      29934          9429.5983      20504.402      4550.8281      7023.2568     -1366.9987      250.75737      217.49743      27886.266     -18057.205     -402.46118      62446.952      39.673795      39.673795      39.673795      1.0654422     -869.39217      2640.7258      4285.3285    
    141000   141000         511.0479       1810.0703      31295.717      29644.143      9168.9637      20475.18       4651.4367      6734.567      -1305.0176      236.56282      329.42156      27887.003     -18058.794     -401.70628      62564.305      39.698632      39.698632      39.698632      1.0634437      2643.5862      1790.5876      996.03713    
    142000   142000         515.02108      1034.2803      30602.593      29663.401      9240.2485      20423.153      4624.795       6786.3995     -1298.4391      248.41197      240.10822      27882.748     -18060.871     -403.64058      62264.488      39.635117      39.635117      39.635117      1.0685644      2617.9327      1020.7611     -535.85285    
    143000   143000         509.88365      195.33222      29847.842      29669.375      9148.0753      20521.3        4613.6586      6857.6345     -1287.9871      232.93863      294.51538      27865.894     -18055.354     -401.16941      62648.032      39.716333      39.716333      39.716333      1.0620224     -260.77614      68.124059      778.64875    
    144000   144000         513.39149      13.876214      29884.19       29871.615      9211.0113      20660.604      4569.8207      7040.6152     -1299.712       240.26722      269.92123      27899.09      -18059.399     -404.45809      62138.637      39.608395      39.608395      39.608395      1.0707286      1.6205301     -68.279329      108.28744    
    145000   145000         516.12926      726.23194      30430.787      29767.797      9260.1309      20507.666      4616.0365      6841.4067     -1296.8941      274.98743      255.85459      27877.823     -18061.548     -401.49436      62597.328      39.705615      39.705615      39.705615      1.0628827      1366.2402      644.98481      167.47084    
    146000   146000         506.3293      -1310.7491      28392.007      29578.872      9084.305       20494.567      4588.7982      6948.6973     -1286.8237      264.40966      171.17109      27870.885     -18062.57      -404.78968      62087.735      39.597577      39.597577      39.597577      1.0716064     -898.89278     -1057.4464     -1975.9083    
    147000   147000         508.38322      222.84097      29793.976      29590.367      9121.1554      20469.211      4501.8237      6899.9339     -1306.7674      258.22328      282.68531      27894.054     -18060.742     -401.15065      62650.962      39.716952      39.716952      39.716952      1.0619728      1415.8818     -26.962105     -720.3968     
    148000   148000         515.76719      1050.6564      30764.43       29817.907      9253.6347      20564.272      4584.0897      6907.427      -1258.8612      238.89721      263.9056       27889.75      -18060.937     -406.85575      61772.445      39.530435      39.530435      39.530435      1.077076       1528.7566      1711.6985     -88.485869    
    149000   149000         515.70496     -167.68438      29520.739      29672.959      9252.5182      20420.441      4559.6302      6903.2656     -1289.2328      235.33964      199.85153      27874.522     -18062.935     -403.76821      62244.807      39.63094       39.63094       39.63094       1.0689023     -1062.5546     -187.27972      746.78124    
    150000   150000         518.94443     -1828.5996      28321.278      29986.154      9310.6393      20675.515      4728.8659      6995.3186     -1305.7469      242.46379      198.40874      27874.634     -18058.429     -402.57601      62429.141      39.670023      39.670023      39.670023      1.0657461     -556.72946     -3444.7122     -1484.3572    
    151000   151000         510.30488      20.073601      29783.945      29765.731      9155.6329      20610.098      4675.5394      6997.126      -1354.1106      255.31282      189.93505      27909.409     -18063.113     -403.94829      62217.058      39.62505       39.62505       39.62505       1.069379      -1457.8404     -322.65391      1840.7151    
    152000   152000         503.83413     -344.66182      29188.192      29500.017      9039.5378      20460.479      4706.9235      6946.8887     -1404.4266      256.42931      154.98095      27864.59      -18064.907     -405.12904      62035.726      39.586517      39.586517      39.586517      1.0725048     -1.0250467      224.1401      -1257.1005    
    153000   153000         513.00545     -719.91179      29102.427      29757.207      9204.085       20553.122      4610.7623      6899.1862     -1270.151       233.72573      239.74438      27905.01      -18065.156     -402.99116      62364.828      39.656396      39.656396      39.656396      1.0668452     -1156.2832      281.61272     -1285.0649    
    154000   154000         504.81234     -2052.3975      27775.992      29654.926      9057.0885      20597.837      4777.1049      6944.4598     -1300.4119      252.35589      103.42848      27880.417     -18059.517     -400.36974      62773.162      39.742758      39.742758      39.742758      1.0599054     -1156.727      -3541.1826     -1459.2829    
    155000   155000         503.93689      1313.0102      30739.051      29541.412      9041.3816      20500.031      4567.433       7028.8834     -1407.2733      233.07028      279.57314      27862.343     -18063.998     -401.84019      62543.456      39.694222      39.694222      39.694222      1.0637982      912.64191      1523.0146      1503.3742    
    156000   156000         507.45044      399.49466      30023.332      29663.815      9104.4198      20559.395      4641.7         6910.256      -1349.8036      222.71979      330.95719      27868.085     -18064.519     -407.28816      61706.862      39.516441      39.516441      39.516441      1.0782207     -18.900848      576.60411      640.78072    
    157000   157000         509.15997      1580.6855      31112.497      29671.909      9135.0915      20536.817      4496.8525      6901.2437     -1300.277       253.20392      330.35626      27913.496     -18058.059     -402.17657      62491.145      39.683152      39.683152      39.683152      1.0646887      1202.9737      2101.2251      1437.8578    
    158000   158000         515.74458      808.24647      30315.143      29583.938      9253.2292      20330.709      4398.3295      6999.8577     -1335.3118      246.24948      242.25108      27843.823     -18064.49      -405.14974      62032.557      39.585843      39.585843      39.585843      1.0725596     -1291.5363      2506.9929      1209.2828    
    159000   159000         497.59515     -144.44996      29227.152      29359.25       8927.6012      20431.649      4644.5192      6896.7393     -1339.77        248.56761      153.12235      27888.138     -18059.668     -400.80354      62705.221      39.728414      39.728414      39.728414      1.0610539     -1092.9232      818.72673     -159.15336    
    160000   160000         515.04635     -1315.1272      28611.476      29803.128      9240.7018      20562.426      4676.018       6888.8193     -1336.5591      260.1694       245.64532      27888.759     -18060.426     -404.51033      62130.612      39.606689      39.606689      39.606689      1.0708669     -726.04152      21.339387     -3240.6795    
    161000   161000         508.20191     -739.00385      28872.863      29545.165      9117.9024      20427.263      4579.2801      6889.7451     -1266.8917      208.67419      189.32809      27886.253     -18059.126     -402.89661      62379.463      39.659498      39.659498      39.659498      1.0665949     -927.39669     -1337.9626      48.347754    
    162000   162000         513.90087      890.3588       30716.731      29904.953      9220.1502      20684.802      4649.6891      6965.8286     -1266.0544      243.48936      274.85891      27879.4       -18062.409     -402.01178      62516.761      39.688573      39.688573      39.688573      1.0642525      2543.9736      67.692974      59.409818    
    163000   163000         508.11646      36.923675      29659.217      29625.477      9116.3692      20509.107      4621.2836      6901.3751     -1325.3367      249.04029      247.32467      27877.596     -18062.175     -401.11752      62656.137      39.718046      39.718046      39.718046      1.0618851     -1386.7868      2214.2536     -716.6957     
    164000   164000         505.57394      1173.8378      30549.031      29480.936      9070.7527      20410.183      4546.1287      6848.2476     -1344.9093      273.84254      267.48902      27877.826     -18058.441     -402.81836      62391.58       39.662066      39.662066      39.662066      1.0663877      2173.0266      1012.7579      335.72886    
    165000   165000         512.87537      1595.7126      31157.32       29721.435      9201.7512      20519.684      4600.3907      6875.0007     -1248.02        244.07076      224.08308      27884.323     -18060.164     -407.32992      61700.536      39.51509       39.51509       39.51509       1.0783312      576.78764      2738.9482      1471.4019    
    166000   166000         513.29304      446.94383      29914.258      29507.79       9209.2449      20298.545      4618.5011      6780.5457     -1355.9424      224.95921      217.84743      27873.946     -18061.312     -403.03078      62358.697      39.655097      39.655097      39.655097      1.0669501      1702.9086     -725.46478      363.38771    
    167000   167000         517.39967     -10.591532      29523.602      29533.102      9282.924       20250.178      4494.198       6895.0964     -1391.4047      233.64799      192.91182      27885.494     -18059.766     -408.67263      61497.817      39.471767      39.471767      39.471767      1.0818858      318.00198     -343.1073      -6.6692811    
    168000   168000         511.7078       828.22383      30393.625      29639.011      9180.8032      20458.208      4488.293       6996.6721     -1332.4293      246.82611      235.79385      27884.172     -18061.119     -402.28523      62474.266      39.679579      39.679579      39.679579      1.0649764      2237.9242      1687.753      -1441.0056    
    169000   169000         508.7692       820.8278       30083.993      29339.735      9128.0804      20211.654      4407.7737      6825.881      -1372.1595      247.51131      269.127        27894.793     -18061.272     -404.24023      62172.126      39.615509      39.615509      39.615509      1.0701519      1495.7335      1206.3292     -239.57937    
    170000   170000         517.39247     -1247.5239      28537.433      29669.137      9282.7947      20386.342      4575.7259      6886.4637     -1328.9697      246.75342      188.5974       27879.488     -18061.717     -404.0427       62202.521      39.621964      39.621964      39.621964      1.0696289     -1232.9354      721.10845     -3230.7447    
    171000   171000         512.03716     -909.45717      28739.989      29573.067      9186.7125      20386.355      4505.0525      6843.7961     -1213.7397      227.13447      227.71119      27856.299     -18059.899     -400.13571      62809.876      39.750504      39.750504      39.750504      1.0592859      592.74071     -1759.4438     -1561.6685    
    172000   172000         498.20142     -611.94895      28843.746      29400.891      8938.4787      20462.412      4636.5995      6801.3735     -1311.1138      251.14054      301.30825      27848.941     -18065.837     -402.58591      62427.605      39.669698      39.669698      39.669698      1.0657724      10.28396      -3339.621       1493.4902    
    173000   173000         500.32297      556.92858      30044.65       29535.421      8976.5425      20558.879      4552.7729      6959.6794     -1245.884       255.24058      235.12926      27865.438     -18063.497     -400.86497      62695.611      39.726385      39.726385      39.726385      1.0612165      1414.6256      1184.4378     -928.27765    
    174000   174000         515.18178      1028.7655      30538.042      29597.452      9243.1316      20354.32       4494.0724      6770.2793     -1276.5007      257.15038      296.68328      27876.74      -18064.104     -400.89164      62691.441      39.725504      39.725504      39.725504      1.0612871      1710.7745     -215.03412      1590.5562    
    175000   175000         517.48588     -152.48874      29459.229      29596.965      9284.4707      20312.494      4563.2965      6820.5676     -1352.8727      222.49122      249.555        27875.458     -18066.002     -405.78967      61934.731      39.565023      39.565023      39.565023      1.0742537     -1441.2583     -232.58342      1216.3755    
    176000   176000         510.00471     -808.19642      28692.731      29429.653      9150.2473      20279.406      4571.3933      6898.7943     -1396.0175      243.43958      176.0213       27848.647     -18062.873     -401.98201      62521.39       39.689553      39.689553      39.689553      1.0641736     -1109.1008      1130.7473     -2446.2358    
    177000   177000         509.05308      88.879732      29801.265      29719.999      9133.1737      20586.825      4626.475       6908.0973     -1280.2976      241.03561      272.44849      27882.075     -18063.009     -400.87361      62694.26       39.7261        39.7261        39.7261        1.0612394      1135.545       43.643025     -912.54884    
    178000   178000         498.65902     -1349.622       28101.569      29324.935      8946.6887      20378.246      4580.5405      6836.4976     -1296.3286      255.79406      193.85478      27865.49      -18057.603     -404.35875      62153.902      39.611638      39.611638      39.611638      1.0704656     -1244.9005     -1549.041      -1254.9245    
    179000   179000         502.55653      283.38191      29690.549      29431.376      9016.6157      20414.76       4541.846       6831.3654     -1338.5884      239.71931      303.55393      27901.565     -18064.701     -400.76814      62710.76       39.729584      39.729584      39.729584      1.0609601     -519.26751      580.2911       789.12214    
    180000   180000         505.83369     -1587.8821      28025.13       29465.98       9075.413       20390.567      4690.8762      6932.9622     -1325.5809      230.44541      68.34772       27855.613     -18062.096     -403.93399      62219.262      39.625518      39.625518      39.625518      1.0693411     -2743.3538      1233.3529     -3253.6453    
    181000   181000         502.38769      887.49656      30076.008      29277.567      9013.5865      20263.981      4527.2364      6772.0443     -1272.3309      248.27775      167.98453      27887.093     -18066.325     -407.41338      61687.896      39.512392      39.512392      39.512392      1.0785522     -236.47124      1659.927       1239.0339    
    182000   182000         503.81145     -276.9558       29379.359      29629.896      9039.131       20590.765      4702.0777      6894.3849     -1318.8477      250.17285      241.14946      27883.798     -18061.97      -405.18112      62027.752      39.584821      39.584821      39.584821      1.0726427     -356.25749      531.11185     -1005.7218    
    183000   183000         508.73887     -309.11083      29245.242      29526.66       9127.5362      20399.124      4524.3549      6948.2471     -1393.2643      244.74499      227.51952      27908         -18060.478     -402.60003      62425.416      39.669234      39.669234      39.669234      1.0658097     -942.13585      1154.2951     -1139.4917    
    184000   184000         493.02077     -544.45922      28692.105      29188.724      8845.53        20343.194      4643.1031      6763.4165     -1285.1547      251.71585      164.06449      27872.372     -18066.323     -401.8399       62543.502      39.694231      39.694231      39.694231      1.0637974     -1023.0669     -332.3794      -277.93137    
    185000   185000         505.63266     -47.279225      29515.692      29558.815      9071.8063      20487.009      4574.4149      6849.9941     -1310.6842      268.90789      265.86023      27901.476     -18062.96      -401.855        62541.152      39.693734      39.693734      39.693734      1.0638374      143.06388      613.13145     -898.033      
    186000   186000         499.18566      801.46965      30007.73       29285.327      8956.1374      20329.19       4507.2423      6791.4088     -1259.7425      251.74742      242.13443      27860.771     -18064.371     -406.64856      61803.918      39.537148      39.537148      39.537148      1.0765275      529.73631      1957.7216     -83.049015    
    187000   187000         507.71157      1308.1341      30733.519      29540.841      9109.105       20431.736      4449.5279      6943.2775     -1342.1148      225.40997      339.7446       27880.345     -18064.454     -402.0133       62516.525      39.688524      39.688524      39.688524      1.0642565      703.41225      2476.0339      744.95625    
    188000   188000         504.95769      1373.5939      30675.922      29426.96       9059.6963      20367.264      4538.0469      6839.1467     -1311.1811      246.3081       261.64275      27857.321     -18064.02      -403.10718      62346.878      39.652591      39.652591      39.652591      1.0671523      3054.5056      512.33711      553.93902    
    189000   189000         499.21927      359.78912      29642.668      29312.971      8956.7404      20356.231      4444.3747      6880.1519     -1337.0818      247.75927      263.54171      27911.523     -18054.038     -399.98611      62833.367      39.75546       39.75546       39.75546       1.0588899      1328.0267      109.13358     -357.7929     
    190000   190000         507.42441      763.84482      29991.763      29294.148      9103.9528      20190.195      4463.1323      6712.7993     -1306.9532      239.70903      250.89852      27892.247     -18061.638     -401.32876      62623.159      39.711076      39.711076      39.711076      1.0624443     -1024.633       1612.5972      1703.5703    
    191000   191000         504.4277       647.5984       30001.59       29411.006      9050.1874      20360.819      4614.6015      6788.3295     -1264.2079      240.43853      181.60824      27862.1       -18062.052     -401.91565      62531.714      39.691738      39.691738      39.691738      1.063998      -1065.8271      3409.4431     -400.82081    
    192000   192000         502.92195      934.59796      30253.324      29400.783      9023.1721      20377.611      4479.4287      6869.8159     -1363.647       253.87         308.25838      27885.063     -18055.178     -401.80982      62548.183      39.695222      39.695222      39.695222      1.0637178      1714.5431      238.04556      851.20522    
    193000   193000         497.77774     -0.16443334     29348.574      29348.723      8930.8773      20417.846      4612.7661      6944.5392     -1289.7856      238.03088      124.83697      27846.436     -18058.978     -404.61191      62115.014      39.603375      39.603375      39.603375      1.0711358     -1694.1635     -866.47826      2560.1484    
    194000   194000         504.64877     -669.77085      28916.692      29524.61       9054.1537      20470.457      4537.1482      6985.865      -1341.7036      227.10415      224.35556      27896.747     -18059.06      -403.82413      62236.187      39.629111      39.629111      39.629111      1.0690503      956.00725     -639.04833     -2326.2715    
    195000   195000         502.3072      -1625.4544      27990.61       29477.805      9012.1425      20465.662      4706.6107      6878.2762     -1330.44        229.10867      162.07918      27882.012     -18061.985     -400.60651      62736.06       39.734926      39.734926      39.734926      1.0605323     -2980.3642     -1506.3157     -389.68333    
    196000   196000         501.42562     -575.01013      28670.732      29195.122      8996.3257      20198.796      4569.969       6797.7326     -1314.407       230.59577      91.945748      27884.729     -18061.768     -401.91269      62532.174      39.691835      39.691835      39.691835      1.0639901      818.50825     -2618.6709      75.13227     
    197000   197000         499.57941      1260.8789      30465.16       29332.72       8963.2018      20369.519      4556.9496      6846.6332     -1332.0989      249.41885      215.54457      27896.391     -18063.32      -408.10281      61583.684      39.490129      39.490129      39.490129      1.0803773      1860.9642     -363.66112      2285.3335    
    198000   198000         502.49207     -1261.5898      28287.655      29446.228      9015.4593      20430.769      4557.2908      6818.8182     -1273.2007      237.32982      243.64932      27905.06      -18058.179     -399.12225      62969.364      39.784121      39.784121      39.784121      1.0566029     -3135.1297     -388.25441     -261.38514    
    199000   199000         499.70505     -410.38717      28941.234      29315.279      8965.4559      20349.823      4621.8239      6857.6324     -1349.4111      265.44474      134.15834      27884.625     -18064.45      -402.14314      62496.339      39.684251      39.684251      39.684251      1.0646002     -2582.9201      814.13383      537.62474    
    200000   200000         503.35911      1382.4938      30639.949      29388.591      9031.0153      20357.576      4499.78        6886.1549     -1327.1282      237.13549      246.5219       27877.394     -18062.282     -404.94188      62064.398      39.592615      39.592615      39.592615      1.0720094      1053.9056      1551.0413      1542.5345    
    201000   201000         501.14274      58.214472      29558.895      29505.687      8991.2503      20514.437      4684.8605      6895.8419     -1372.5035      232.66282      265.07162      27868.167     -18059.664     -401.02038      62671.315      39.721253      39.721253      39.721253      1.0616279     -147.61348     -526.85248      849.10938    
    202000   202000         494.57426      437.45518      29574.418      29177.917      8873.4019      20304.515      4509.2203      6811.9076     -1347.6017      277.52015      230.17791      27881.181     -18057.89      -404.3905       62149.023      39.610601      39.610601      39.610601      1.0705497      275.64008      1361.9117     -325.18622    
    203000   203000         492.50666     -1298.5563      27958.763      29133.089      8836.3061      20296.783      4594.8676      6803.2643     -1290.3462      230.42578      140.4279       27872.935     -18054.792     -405.30642      62008.576      39.580741      39.580741      39.580741      1.0729744     -2974.4852     -295.27399     -625.90973    
    204000   204000         499.35187     -1169.3394      28137.919      29197.976      8959.1194      20238.857      4606.5011      6811.8205     -1384.3048      238.13012      134.52379      27893.525     -18061.339     -404.31756      62160.235      39.612983      39.612983      39.612983      1.0703566     -596.34427     -1334.7285     -1576.9456    
    205000   205000         501.48189      287.07924      29586.447      29324.407      8997.3351      20327.072      4440.8176      6825.2466     -1296.3452      236.32299      277.18918      27903.679     -18059.838     -401.55504      62587.868      39.703615      39.703615      39.703615      1.0630433     -1667.5833      1723.1979      805.62313    
    206000   206000         485.49448      634.83637      29585.903      29013.514      8710.497       20303.017      4544.2649      6825.0188     -1331.4017      255.32621      198.40319      27870.891     -18059.486     -406.51924      61823.578      39.54134       39.54134       39.54134       1.0761851      814.833        19.772943      1069.9032    
    207000   207000         499.39647     -390.79598      28858.806      29217.201      8959.9197      20257.281      4490.8596      6873.0861     -1301.2196      216.92915      160.41627      27879.119     -18061.91      -399.66776      62883.416      39.766012      39.766012      39.766012      1.0580471     -591.71935     -495.70196     -84.966627    
    208000   208000         490.70818     -1604.2142      27815.971      29292.97       8804.0386      20488.931      4550.9424      6956.0075     -1319.2674      235.35563      238.00962      27885.386     -18057.503     -398.10109      63130.886      39.818109      39.818109      39.818109      1.0538996     -1180.889      -773.61289     -2858.1409    
[...]
    952000   952000         308.71013      614.65691      22742.376      22205.384      5538.7215      16666.663      3053.5269      5381.5008     -1539.4036      172.99147     -181.79869      27841.496     -18061.651     -419.54251      59904.476      39.12789       39.12789       39.12789       1.1106619      894.78615      1542.6312     -593.44665    
    953000   953000         315.27794     -902.32591      21448.825      22232.196      5656.5579      16575.638      3127.7489      5342.8583     -1565.8093      153.01051     -248.35706      27834.945     -18068.759     -422.18926      59528.928      39.045952      39.045952      39.045952      1.1176686     -585.76231     -930.51063     -1190.7048    
    954000   954000         314.68657     -719.42007      21564.984      22192.27       5645.9477      16546.322      3069.0667      5296.2227     -1522.2236      173.41441     -258.3505       27855.448     -18067.256     -420.36664      59787.034      39.102303      39.102303      39.102303      1.1128436     -563.24811     -360.05413     -1234.958     
    955000   955000         310.82749      267.34762      22485.977      22251.893      5576.71        16675.183      3135.8076      5408.1136     -1563.7107      156.87692     -238.60752      27842.782     -18066.079     -418.61612      60037.044      39.156732      39.156732      39.156732      1.1082094      1057.2052     -642.22061      387.05828    
    956000   956000         307.87131      249.70665      22360.235      22141.927      5523.6717      16618.255      3088.5435      5369.5049     -1533.2012      172.97088     -265.21257      27852.848     -18067.198     -419.2474       59946.643      39.137068      39.137068      39.137068      1.1098806      1161.0224     -371.07202     -40.830389    
    957000   957000         319.00601     -562.17092      21931.347      22422.446      5723.445       16699.001      3070.8991      5458.7837     -1548.5763      175.55037     -227.94739      27838.655     -18068.364     -419.57538      59899.783      39.126868      39.126868      39.126868      1.1107489     -527.99729     -833.58634     -324.92914    
    958000   958000         306.49749      458.56309      22499.026      22098.539      5499.0233      16599.516      3082.8793      5354.4622     -1524.7036      159.44347     -263.03982      27853.814     -18063.339     -419.68361      59884.336      39.123504      39.123504      39.123504      1.1110354     -1205.231       1440.2386      1140.6817    
    959000   959000         302.76048      306.79902      22335.545      22066.713      5431.9759      16634.737      3087.0555      5391.4052     -1543.933       172.47218     -228.67847      27824.283     -18067.868     -418.29565      60083.039      39.166729      39.166729      39.166729      1.107361      -1115.9228      2283.8859     -247.56609    
    960000   960000         310.80292     -681.88153      21463.814      22056.175      5576.2693      16479.906      3108.2366      5270.6659     -1539.5803      148.61515     -270.49561      27826.193     -18063.729     -421.9235       59566.424      39.054149      39.054149      39.054149      1.1169651     -800.69557     -890.10307     -354.84595    
    961000   961000         304.15362     -683.87806      21459.902      22059.285      5456.9709      16602.315      3100.5517      5362.7164     -1555.0638      160.69184     -267.80187      27863.21      -18061.989     -418.20065      60096.689      39.169694      39.169694      39.169694      1.1071095     -826.14275     -1173.3202     -52.17124     
    962000   962000         311.89434      116.36073      22290.554      22189.672      5595.8509      16593.821      3050.1948      5382.944      -1543.1122      161.04018     -242.76126      27851.739     -18066.224     -422.77079      59447.046      39.028042      39.028042      39.028042      1.1192081     -667.51687      983.25376      33.345298    
    963000   963000         310.16797     -471.66929      21576.101      21985.189      5564.8772      16420.312      3020.7696      5322.6363     -1545.6088      170.83567     -336.02014      27855.906     -18068.207     -422.60269      59470.692      39.033216      39.033216      39.033216      1.1187631      23.0805       -338.01148     -1100.0769    
    964000   964000         313.74033     -1919.2761      20508.159      22188.05       5628.9707      16559.08       3159.7359      5336.5531     -1503.5525      171.96398     -368.00296      27828.628     -18066.246     -418.76217      60016.105      39.152179      39.152179      39.152179      1.108596      -1683.8192     -2548.5083     -1525.5007    
    965000   965000         305.38647      184.2          22231.532      22070.113      5479.0901      16591.023      3157.4333      5322.406      -1560.0206      170.24169     -274.17377      27841.821     -18066.685     -418.26046      60088.095      39.167827      39.167827      39.167827      1.1072679     -102.34053      676.22168     -21.281147    
    966000   966000         306.5723      -825.26144      21321.547      22041.195      5500.3656      16540.83       3041.6147      5336.1006     -1522.5268      169.33533     -265.06107      27844.249     -18062.882     -420.32214      59793.362      39.103683      39.103683      39.103683      1.1127258     -1890.8923     -142.41168     -442.48039    
    967000   967000         310.24241      564.56221      22685.634      22196.46       5566.2129      16630.247      3119.3147      5333.5618     -1557.393       161.97617     -193.37373      27832.002     -18065.84      -423.01935      59412.115      39.020396      39.020396      39.020396      1.1198661      408.78628      1480.2942     -195.39386    
    968000   968000         309.65917      84.640465      22123.893      22050.283      5555.7488      16494.534      3077.268       5278.3162     -1526.2243      169.46958     -288.81595      27849.225     -18064.704     -421.4534       59632.866      39.068664      39.068664      39.068664      1.1157206      764.33491     -382.76625     -127.64727    
    969000   969000         307.73869     -1043.6813      20996.4        21906.392      5521.2924      16385.099      3031.3105      5272.1132     -1570.3523      151.69634     -283.45693      27852.743     -18068.955     -420.37959      59785.191      39.101901      39.101901      39.101901      1.1128779     -1624.7942      258.83632     -1765.0861    
    970000   970000         309.28073     -154.34259      22010.425      22145.07       5548.9589      16596.111      3088.3559      5387.8535     -1525.8553      154.10702     -295.14383      27852.092     -18065.299     -420.15362      59817.346      39.10891       39.10891       39.10891       1.1122796     -1840.4249      969.3294       408.06777    
    971000   971000         306.28288     -142.33661      21937.763      22062.913      5495.1729      16567.74       3106.0299      5331.057      -1587.5103      175.06795     -247.90956      27857.646     -18066.641     -416.86726      60288.914      39.211412      39.211412      39.211412      1.1035796      137.4245       431.13443     -995.56875    
    972000   972000         307.66525      826.46471      22741.735      22021.611      5519.9748      16501.637      3038.0056      5288.431      -1521.6181      162.14449     -253.11436      27848.051     -18060.263     -420.65747      59745.698      39.093289      39.093289      39.093289      1.1136135      2235.538       271.5879      -27.731794    
    973000   973000         303.89069      1202.6428      23089.411      22046.273      5452.2536      16594.019      3052.2059      5387.668      -1524.51        167.83509     -257.06608      27832.727     -18064.84      -422.57697      59474.311      39.034007      39.034007      39.034007      1.118695       1201.0345      1244.1355      1162.7584    
    974000   974000         307.898       -1580.7475      20766.919      22150.805      5524.1506      16626.654      3208.2095      5326.2943     -1543.2304      167.16662     -306.13442      27836.935     -18062.587     -418.67153      60029.098      39.155004      39.155004      39.155004      1.1083561     -1701.378      -1983.747      -1057.1176    
    975000   975000         300.21618      525.71925      22384.878      21925.574      5386.3274      16539.247      3029.8391      5303.5859     -1548.734       173.70063     -212.42076      27856.473     -18063.197     -419.53188      59905.995      39.12822       39.12822       39.12822       1.1106337      1179.5918     -679.49402      1077.0599    
    976000   976000         309.12561     -1182.2419      21010.592      22043.953      5546.1757      16497.777      3067.7957      5365.042      -1576.4103      168.17706     -308.85011      27849.209     -18067.186     -419.33914      59933.529      39.134214      39.134214      39.134214      1.1101234     -854.97052     -526.8214      -2164.9339    
    977000   977000         302.22797     -423.02471      21509.491      21878.274      5422.4218      16455.852      2993.5904      5370.0621     -1575.5327      160.46013     -293.43579      27864.688     -18063.98      -420.44189      59776.333      39.09997       39.09997       39.09997       1.1130428     -603.55134     -605.13952     -60.383262    
    978000   978000         304.23596      364.11074      22354.554      22034.886      5458.4482      16576.438      3063.9109      5396.6046     -1566.9579      163.49288     -272.14328      27855.795     -18064.264     -417.48956      60199.049      39.19192       39.19192       39.19192       1.105227       130.6805       907.90944      53.742276    
    979000   979000         304.01488      452.23832      22502.569      22110.507      5454.4817      16656.025      3026.1966      5410.4223     -1519.5573      174.75704     -249.5216       27873.928     -18060.2       -422.78853      59444.552      39.027496      39.027496      39.027496      1.1192551      1451.4142     -952.8139       858.11463    
    980000   980000         303.93942     -1788.6265      20399.835      21964.403      5453.1278      16511.275      3037.4131      5381.3933     -1546.123       150.90391     -283.07827      27833.717     -18062.951     -419.02158      59978.95       39.144098      39.144098      39.144098      1.1092828     -2901.1178     -1924.0601     -540.70169    
    981000   981000         302.95659     -625.65776      21428.468      21976.678      5435.4944      16541.184      3096.9522      5352.692      -1562.9411      155.86466     -288.00893      27850.741     -18064.116     -418.31237      60080.638      39.166207      39.166207      39.166207      1.1074053      494.42648     -1537.8664     -833.53337    
    982000   982000         306.69915      384.29542      22262.518      21928.703      5502.6414      16426.061      2975.0702      5326.4739     -1556.2638      160.61118     -265.91321      27852.486     -18066.403     -421.9582       59561.526      39.053078      39.053078      39.053078      1.1170569     -440.69239      486.13843      1107.4402    
    983000   983000         305.2243      -438.61345      21458.441      21839.548      5476.1805      16363.367      2951.4599      5347.2589     -1580.3779      146.45821     -288.6861       27852.335     -18065.08      -421.83876      59578.39       39.056764      39.056764      39.056764      1.1167407     -1661.4928      418.52114     -72.868698    
    984000   984000         308.8734      -1250.55        20893.451      21987.599      5541.6508      16445.948      3089.2772      5242.2567     -1570.2216      166.71976     -246.70656      27832.466     -18067.843     -418.9246       59992.835      39.147118      39.147118      39.147118      1.109026      -1935.6123     -1161.3905     -654.64731    
    985000   985000         308.68623      803.52206      22765.927      22065.425      5538.2927      16527.132      3022.1188      5306.1511     -1547.2823      177.52887     -195.65847      27833.465     -18069.191     -420.43509      59777.299      39.100181      39.100181      39.100181      1.1130248      923.18242      984.573        502.81076    
    986000   986000         299.74104      515.68301      22310.166      21859.114      5377.8026      16481.311      3049.7386      5310.4188     -1559.2816      161.59992     -273.04235      27854.855     -18062.977     -419.05122      59974.708      39.143175      39.143175      39.143175      1.1093612     -192.55884      1591.1996      148.40824    
    987000   987000         308.55946     -777.74436      21459.213      22138.841      5536.0182      16602.822      3036.5037      5355.4743     -1495.0044      179.13846     -254.71564      27844.233     -18062.807     -419.44674      59918.154      39.130867      39.130867      39.130867      1.1104083      45.320553     -2081.0472     -297.50637    
    988000   988000         300.87796     -872.89326      21048.79       21809.984      5398.2006      16411.784      3082.2253      5292.4782     -1562.5955      171.11649     -333.88577      27832.034     -18069.589     -420.31655      59794.158      39.103856      39.103856      39.103856      1.112711      -2219.6661     -1870.431       1471.4173    
    989000   989000         304.27519      864.47161      22694.886      21941.407      5459.1521      16482.255      2979.4747      5330.0592     -1537.4306      171.17696     -245.57803      27847.607     -18063.054     -420.52401      59764.659      39.097424      39.097424      39.097424      1.1132602     -984.96818      2185.1849      1393.1981    
    990000   990000         300.67552     -555.86813      21312.199      21798.582      5394.5685      16404.014      3070.0345      5234.9042     -1530.0631      160.11852     -310.83516      27847.574     -18067.719     -418.89421      59997.187      39.148065      39.148065      39.148065      1.1089456      1176.2185     -2366.14       -477.68289    
    991000   991000         302.11482     -1013.5375      21004.069      21889.322      5420.3918      16468.93       3068.3289      5357.4406     -1552.0125      177.26161     -356.005        27838.623     -18064.706     -419.64646      59889.637      39.124659      39.124659      39.124659      1.110937      -1062.4649     -1844.6465     -133.50109    
    992000   992000         302.74241      88.965848      22008.405      21930.72       5431.6516      16499.068      3001.9797      5402.6441     -1568.2592      179.56604     -303.58583      27852.116     -18065.392     -419.7546       59874.208      39.121298      39.121298      39.121298      1.1112233     -197.32795      97.851993      366.3735     
    993000   993000         298.85753      1129.5582      22793.598      21814.617      5361.9511      16452.665      2991.4277      5317.8503     -1556.1336      187.29932     -250.81115      27829.738     -18066.705     -422.90746      59427.834      39.023837      39.023837      39.023837      1.1195699      2323.8461      232.16626      832.66226    
    994000   994000         305.78854     -138.06554      21805.329      21925.33       5486.3037      16439.026      2989.0893      5399.9068     -1555.5558      161.55547     -330.41027      27842.371     -18067.931     -421.70963      59596.634      39.06075       39.06075       39.06075       1.1163989     -307.93181     -178.96339      72.698565    
    995000   995000         298.09848     -686.77635      21148.702      21746.528      5348.3326      16398.196      2994.6795      5365.1925     -1599.8573      165.51034     -301.6328       27840.919     -18066.616     -421.06694      59687.598      39.080613      39.080613      39.080613      1.1146975     -653.96939     -264.65603     -1141.7036    
    996000   996000         302.57408     -67.528213      21677.484      21736.229      5428.6315      16307.597      2930.9386      5342.5624     -1635.6846      164.5448      -263.3986       27835.966     -18067.331     -421.33056      59650.253      39.072461      39.072461      39.072461      1.1153954     -1070.4083     -210.42236      1078.246     
    997000   997000         298.48012      735.67618      22539.447      21898.052      5355.1797      16542.872      3100.9592      5403.3428     -1624.8689      168.99303     -283.1308       27843.824     -18066.247     -420.40918      59780.984      39.100984      39.100984      39.100984      1.1129562     -2016.4811      3010.6285      1212.8812    
    998000   998000         300.96816      1393.7897      22867.443      21659.881      5399.8189      16260.062      2952.6231      5248.1333     -1614.227       178.45344     -278.56891      27842.382     -18068.734     -423.05715      59406.807      39.019234      39.019234      39.019234      1.1199662      91.321923      2795.0781      1294.9691    
    999000   999000         296.89756      162.72151      21877.65       21735.274      5326.7862      16408.488      3032.9406      5237.5665     -1541.1882      163.95338     -254.66368      27838.26      -18068.38      -418.91006      59994.917      39.147571      39.147571      39.147571      1.1089875      764.68764     -609.36314      332.84004    
   1000000   1000000        301.29284      293.99093      22155.681      21900.224      5405.6441      16494.58       3040.7694      5292.7018     -1551.1812      163.09652     -222.9335       27840.841     -18068.714     -421.82022      59581.009      39.057336      39.057336      39.057336      1.1166917      13.797888      191.17207      677.00284    
Loop time of 6836.75 on 8 procs for 1000000 steps with 6020 atoms

Performance: 12.638 ns/day, 1.899 hours/ns, 146.268 timesteps/s, 880.535 katom-step/s
97.6% CPU use with 8 MPI tasks x 1 OpenMP threads

MPI task timing breakdown:
Section |  min time  |  avg time  |  max time  |%varavg| %total
---------------------------------------------------------------
Pair    | 2319.3     | 2359.6     | 2420.7     |  66.6 | 34.51
Bond    | 1330.5     | 1572.7     | 1767.9     | 304.0 | 23.00
Kspace  | 808.62     | 1006.5     | 1249.4     | 385.3 | 14.72
Neigh   | 850.49     | 906.37     | 966.36     | 119.0 | 13.26
Comm    | 271.32     | 274.82     | 278.63     |  13.9 |  4.02
Output  | 3.4329     | 3.6957     | 3.9156     |   8.2 |  0.05
Modify  | 554.24     | 659.61     | 720.31     | 188.9 |  9.65
Other   |            | 53.41      |            |       |  0.78

Nlocal:          752.5 ave         775 max         707 min
Histogram: 1 0 0 0 1 1 0 2 1 2
Nghost:        7041.38 ave        7083 max        6986 min
Histogram: 1 0 1 0 0 3 0 1 0 2
Neighs:              0 ave           0 max           0 min
Histogram: 8 0 0 0 0 0 0 0 0 0
FullNghs:       484079 ave      502710 max      452401 min
Histogram: 1 0 0 1 0 1 2 0 0 3

Total # of neighbors = 3872630
Ave neighs/atom = 643.29402
Ave special neighs/atom = 5.717608
Neighbor list builds = 43315
Dangerous builds = 0

# --- Cleanup ---
unfix npt_fix

undump dump_npt

# --- Write Output ---
write_dump all custom npt_cool300_last.dump id type mol x y z xu yu zu vx vy vz modify sort id
write_data /home/arz2/PolyJarvis/data/PMMA1/lammps/npt_cool300/npt_cool300_out.data
System init for write_data ...
PPPM initialization ...
  using 12-bit tables for long-range coulomb
  G vector (1/distance) = 0.24511599
  grid = 15 15 15
  stencil order = 5
  estimated absolute RMS force accuracy = 0.028296694
  estimated relative force accuracy = 8.5214654e-05
  using double precision KISS FFT
  3d grid and FFT values/proc = 2197 512
Generated 15 of 15 mixed pair_coeff terms from sixthpower/sixthpower mixing rule

print "STAGE COMPLETE: NPT T=550.0->300.0K P=1.0->1.0atm steps=1000000"
STAGE COMPLETE: NPT T=550.0->300.0K P=1.0->1.0atm steps=1000000
quit
