units real
atom_style full
boundary p p p

# --- Force Field Styles ---
pair_style lj/class2/coul/long 9.5 9.5
kspace_style pppm 1e-6
dielectric 1.000000
bond_style class2
angle_style class2
dihedral_style class2
improper_style class2
special_bonds lj/coul 0 0 1
pair_modify mix sixthpower tail yes
neighbor 2.0 bin
neigh_modify delay 0 every 1 check yes
neigh_modify one 4000
# KOKKOS: package loaded via -pk kokkos on the command line

read_data /home/alexzhao/PolyJarvis/data/PEG4/lammps/equil/npt_melt/npt_melt_out.data
Reading data file ...
  orthogonal box = (3.3126739 3.3126739 3.3126739) to (46.008459 46.008459 46.008459)
  1 by 1 by 1 MPI processor grid
  reading atoms ...
  7020 atoms
  reading velocities ...
  7020 velocities
  scanning bonds ...
  4 = max bonds/atom
  scanning angles ...
  10 = max angles/atom
  scanning dihedrals ...
  16 = max dihedrals/atom
  scanning impropers ...
  7 = max impropers/atom
  orthogonal box = (3.3126739 3.3126739 3.3126739) to (46.008459 46.008459 46.008459)
  1 by 1 by 1 MPI processor grid
  reading bonds ...
  7010 bonds
  reading angles ...
  13000 angles
  reading dihedrals ...
  14970 dihedrals
  reading impropers ...
  8000 impropers
Finding 1-2 1-3 1-4 neighbors ...
  special bond factors lj:    0        0        1       
  special bond factors coul:  0        0        1       
     4 = max # of 1-2 neighbors
     6 = max # of 1-3 neighbors
     8 = max # of special neighbors
  special bonds CPU = 0.004 seconds
  read_data CPU = 1.291 seconds
include /home/alexzhao/PolyJarvis/data/PEG4/lammps/equil/emc_build.params
# LAMMPS parameters created by EMC v9.4.4, build Jul 31 2025 20:33:44

# Variables

variable	seed		index	409966
variable	ntotal		index	7020
variable	fshape		index	1
variable	output		index	emc_build
variable	field		index	pcff/pcff
variable	location1	index	~/emc/field/
variable	nav		index	0.6022141179
variable	temperature	index	300
variable	radius		index	5
variable	nrelax		index	100
variable	weight_nonbond	index	0.0001
variable	weight_bond	index	0.0001
variable	weight_focus	index	1
variable	cutoff		index	9.5
variable	charge_cutoff	index	9.5
variable	kappa		index	4
variable	density1	index	0.61
variable	lprevious	index	0
variable	lphase		index	49.3211329242
variable	f_poly		index	10
variable	chem_repeat	index	*CCO*
variable	chem_cap	index	*[H]
variable	lg_repeat	index	7
variable	lg_cap		index	1
variable	norm_poly	index	100
variable	l_poly		index	702
variable	mg_repeat	index	16.04303
variable	mg_cap		index	0
variable	m_poly		index	1604.303
variable	n_poly		index	10
variable	mtotal		index	44073.7394
variable	nphase1		index	7020
variable	mphase1		index	44073.7394
variable	vphase1		index	119977.313144
variable	lbox		index	49.3211329242
variable	lphase1		index	49.3211329242
variable	lxx		index	49.3211329242
variable	lyy		index	49.3211329242
variable	lzz		index	49.3211329242
variable	lzy		index	0
variable	lzx		index	0
variable	lyx		index	0
variable	vtotal		index	119977.313144
variable	nl_poly		index	10

# Types

variable	type_c		index	1
variable	type_hc		index	2
variable	type_ho		index	3
variable	type_oc		index	4
variable	type_oh		index	5

variable	type_bond_c_c	index	1
variable	type_bond_c_hc	index	2
variable	type_bond_c_oc	index	3
variable	type_bond_c_oh	index	4
variable	type_bond_ho_oh	index	5

variable	type_angle_c_c_hc index	1
variable	type_angle_c_c_oc index	2
variable	type_angle_c_c_oh index	3
variable	type_angle_c_oc_c index	4
variable	type_angle_c_oh_ho index	5
variable	type_angle_hc_c_hc index	6
variable	type_angle_hc_c_oc index	7
variable	type_angle_hc_c_oh index	8

# Clusters

variable	n0_poly		index	1
variable	n1_poly		index	10
variable	nl_poly		index	10

# Flags

variable	flag_charged	index	1

# Masses

mass		1    12.01115  # c
mass		2     1.00797  # hc
mass		3     1.00797  # ho
mass		4    15.99940  # oc
mass		5    15.99940  # oh

# Potentials

pair_modify	mix sixthpower tail yes
special_bonds	lj/coul 0 0 1

# Pair Coeffs

pair_coeff	 1  1    0.05400    4.01000  # c,c
pair_coeff	 2  2    0.02000    2.99500  # hc,hc
pair_coeff	 3  3    0.01300    1.09800  # ho,ho
pair_coeff	 4  4    0.24000    3.53500  # oc,oc
pair_coeff	 5  5    0.24000    3.53500  # oh,oh

# Bond Coeffs

bond_coeff	1    1.53000  299.67000 -501.77000  679.81000  # c,c
bond_coeff	2    1.10100  345.00000 -691.89000  844.60000  # c,hc
bond_coeff	3    1.42000  400.39540 -835.19510 1313.01420  # c,oc
bond_coeff	4    1.42000  400.39540 -835.19510 1313.01420  # c,oh
bond_coeff	5    0.96500  532.50620 -1282.90500 2004.76580  # ho,oh

# Angle Coeffs

angle_coeff	1  110.77000   41.45300  -10.60400    5.12900  # c,c,hc
angle_coeff	2  111.27000   54.53810   -8.36420  -13.08380  # c,c,oc
angle_coeff	3  111.27000   54.53810   -8.36420  -13.08380  # c,c,oh
angle_coeff	4  104.50000   35.74540  -10.00670   -6.27290  # c,oc,c
angle_coeff	5  105.80000   52.70610  -12.10900   -9.86810  # c,oh,ho
angle_coeff	6  107.66000   39.64100  -12.92100   -2.43180  # hc,c,hc
angle_coeff	7  108.72800   58.54460  -10.80880  -12.40060  # hc,c,oc
angle_coeff	8  108.72800   58.54460  -10.80880  -12.40060  # hc,c,oh

# BondBond Coeffs

angle_coeff	1 bb    3.38720    1.53000    1.10100  # c,c,hc
angle_coeff	2 bb   11.43180    1.53000    1.42000  # c,c,oc
angle_coeff	3 bb   11.43180    1.53000    1.42000  # c,c,oh
angle_coeff	4 bb   -7.11310    1.42000    1.42000  # c,oc,c
angle_coeff	5 bb   -9.68790    1.42000    0.96500  # c,oh,ho
angle_coeff	6 bb    5.33160    1.10100    1.10100  # hc,c,hc
angle_coeff	7 bb   23.19790    1.10100    1.42000  # hc,c,oc
angle_coeff	8 bb   23.19790    1.10100    1.42000  # hc,c,oh

# BondAngle Coeffs

angle_coeff	1 ba   20.75400   11.42100    1.53000    1.10100  # c,c,hc
angle_coeff	2 ba    2.68680   20.40330    1.53000    1.42000  # c,c,oc
angle_coeff	3 ba    2.68680   20.40330    1.53000    1.42000  # c,c,oh
angle_coeff	4 ba   -2.81120   -2.81120    1.42000    1.42000  # c,oc,c
angle_coeff	5 ba   28.58000   18.92770    1.42000    0.96500  # c,oh,ho
angle_coeff	6 ba   18.10300   18.10300    1.10100    1.10100  # hc,c,hc
angle_coeff	7 ba    4.61890   55.32700    1.10100    1.42000  # hc,c,oc
angle_coeff	8 ba    4.61890   55.32700    1.10100    1.42000  # hc,c,oh

# Dihedral Coeffs

dihedral_coeff	1   -0.52030    0.00000   -0.30280    0.00000   -0.34500    0.00000  # c,c,oc,c
dihedral_coeff	2   -0.67320    0.00000   -0.47780    0.00000   -0.16700    0.00000  # c,c,oh,ho
dihedral_coeff	3    0.53020    0.00000    0.00000    0.00000   -0.39660    0.00000  # c,oc,c,hc
dihedral_coeff	4   -0.14320    0.00000    0.06170    0.00000   -0.10830    0.00000  # hc,c,c,hc
dihedral_coeff	5   -0.14350    0.00000    0.25300    0.00000   -0.09050    0.00000  # hc,c,c,oc
dihedral_coeff	6   -0.14350    0.00000    0.25300    0.00000   -0.09050    0.00000  # hc,c,c,oh
dihedral_coeff	7    0.18630    0.00000   -0.43380    0.00000   -0.21210    0.00000  # hc,c,oh,ho
dihedral_coeff	8   -0.18200    0.00000   -0.10840    0.00000   -0.70470    0.00000  # oc,c,c,oc
dihedral_coeff	9   -0.18200    0.00000   -0.10840    0.00000   -0.70470    0.00000  # oc,c,c,oh

# MiddleBondTorsion Coeffs

dihedral_coeff	1 mbt   -5.92880   -2.70070   -0.31750    1.42000  # c,c,oc,c
dihedral_coeff	2 mbt    1.24720    0.00000    0.74850    1.42000  # c,c,oh,ho
dihedral_coeff	3 mbt   -6.80070   -4.65460   -1.41010    1.42000  # c,oc,c,hc
dihedral_coeff	4 mbt  -14.26100   -0.53220   -0.48640    1.53000  # hc,c,c,hc
dihedral_coeff	5 mbt  -16.79750   -1.22960   -0.27500    1.53000  # hc,c,c,oc
dihedral_coeff	6 mbt  -16.79750   -1.22960   -0.27500    1.53000  # hc,c,c,oh
dihedral_coeff	7 mbt    0.00000    0.92410   -0.58890    1.42000  # hc,c,oh,ho
dihedral_coeff	8 mbt  -17.25850   -3.61570   -0.83640    1.53000  # oc,c,c,oc
dihedral_coeff	9 mbt  -17.25850   -3.61570   -0.83640    1.53000  # oc,c,c,oh

# EndBondTorsion Coeffs

dihedral_coeff	1 ebt   -0.24560    1.05170   -0.77950    0.47410    1.26350    0.55760    1.53000    1.42000  # c,c,oc,c
dihedral_coeff	2 ebt   -0.58000    0.90040    0.00000    0.00000    0.53430    0.90250    1.53000    0.96500  # c,c,oh,ho
dihedral_coeff	3 ebt   -0.16200    0.15640   -1.14080   -0.60540    1.33390    0.96480    1.42000    1.10100  # c,oc,c,hc
dihedral_coeff	4 ebt    0.21300    0.31200    0.07770    0.21300    0.31200    0.07770    1.10100    1.10100  # hc,c,c,hc
dihedral_coeff	5 ebt    0.96810    0.95510    0.04360    0.59030    0.66690    0.85840    1.10100    1.42000  # hc,c,c,oc
dihedral_coeff	6 ebt    0.96810    0.95510    0.04360    0.59030    0.66690    0.85840    1.10100    1.42000  # hc,c,c,oh
dihedral_coeff	7 ebt   -1.75540    1.31450    0.22630    0.24930    0.68030    0.00000    1.10100    0.96500  # hc,c,oh,ho
dihedral_coeff	8 ebt    1.01650    0.75530   -0.46090    1.01650    0.75530   -0.46090    1.42000    1.42000  # oc,c,c,oc
dihedral_coeff	9 ebt    1.01650    0.75530   -0.46090    1.01650    0.75530   -0.46090    1.42000    1.42000  # oc,c,c,oh

# AngleTorsion Coeffs

dihedral_coeff	1 at   -2.74660    1.48770   -0.89550    0.56760    0.94500    0.07030  111.27000  104.50000  # c,c,oc,c
dihedral_coeff	2 at   -3.59030    2.52250    0.48880    0.87260   -0.35770    0.38880  111.27000  105.80000  # c,c,oh,ho
dihedral_coeff	3 at   -0.77770    0.43400   -0.66530   -1.82340    1.63930    0.51440  104.50000  108.72800  # c,oc,c,hc
dihedral_coeff	4 at   -0.80850    0.55690   -0.24660   -0.80850    0.55690   -0.24660  110.77000  110.77000  # hc,c,c,hc
dihedral_coeff	5 at    2.36680    2.49200   -1.01220   -0.18920    0.49180    0.72730  110.77000  111.27000  # hc,c,c,oc
dihedral_coeff	6 at    2.36680    2.49200   -1.01220   -0.18920    0.49180    0.72730  110.77000  111.27000  # hc,c,c,oh
dihedral_coeff	7 at   -3.40600    1.63960    0.07370    0.00000   -0.28100   -0.59440  108.72800  105.80000  # hc,c,oh,ho
dihedral_coeff	8 at    0.55110    0.97370   -0.66730    0.55110    0.97370   -0.66730  111.27000  111.27000  # oc,c,c,oc
dihedral_coeff	9 at    0.55110    0.97370   -0.66730    0.55110    0.97370   -0.66730  111.27000  111.27000  # oc,c,c,oh

# AngleAngleTorsion Coeffs

dihedral_coeff	1 aat  -19.00590  111.27000  104.50000  # c,c,oc,c
dihedral_coeff	2 aat  -12.10380  111.27000  105.80000  # c,c,oh,ho
dihedral_coeff	3 aat  -16.44380  104.50000  108.72800  # c,oc,c,hc
dihedral_coeff	4 aat  -12.56400  110.77000  110.77000  # hc,c,c,hc
dihedral_coeff	5 aat  -20.20060  110.77000  111.27000  # hc,c,c,oc
dihedral_coeff	6 aat  -20.20060  110.77000  111.27000  # hc,c,c,oh
dihedral_coeff	7 aat  -10.50930  108.72800  105.80000  # hc,c,oh,ho
dihedral_coeff	8 aat  -14.04840  111.27000  111.27000  # oc,c,c,oc
dihedral_coeff	9 aat  -14.04840  111.27000  111.27000  # oc,c,c,oh

# BondBond13 Coeffs

dihedral_coeff	1 bb13    0.00000    1.53000    1.42000  # c,c,oc,c
dihedral_coeff	2 bb13    0.00000    1.53000    0.96500  # c,c,oh,ho
dihedral_coeff	3 bb13    0.00000    1.42000    1.10100  # c,oc,c,hc
dihedral_coeff	4 bb13    0.00000    1.10100    1.10100  # hc,c,c,hc
dihedral_coeff	5 bb13    0.00000    1.10100    1.42000  # hc,c,c,oc
dihedral_coeff	6 bb13    0.00000    1.10100    1.42000  # hc,c,c,oh
dihedral_coeff	7 bb13    0.00000    1.10100    0.96500  # hc,c,oh,ho
dihedral_coeff	8 bb13    0.00000    1.42000    1.42000  # oc,c,c,oc
dihedral_coeff	9 bb13    0.00000    1.42000    1.42000  # oc,c,c,oh

# Improper Coeffs

improper_coeff	1    0.00000    0.00000  # c,c,hc,hc
improper_coeff	2    0.00000    0.00000  # c,c,hc,oc
improper_coeff	3    0.00000    0.00000  # c,c,oc,hc
improper_coeff	4    0.00000    0.00000  # c,c,oh,hc
improper_coeff	5    0.00000    0.00000  # c,hc,hc,hc
improper_coeff	6    0.00000    0.00000  # c,hc,hc,oc
improper_coeff	7    0.00000    0.00000  # c,hc,hc,oh

# AngleAngle Coeffs

improper_coeff	1 aa    0.27380   -0.48250    0.27380  110.77000  110.77000  107.66000  # c,c,hc,hc
improper_coeff	2 aa    3.91770    2.59260    0.16890  110.77000  111.27000  108.72800  # c,c,hc,oc
improper_coeff	3 aa    0.16890    2.59260    3.91770  111.27000  110.77000  108.72800  # c,c,oc,hc
improper_coeff	4 aa    0.16890    2.59260    3.91770  111.27000  110.77000  108.72800  # c,c,oh,hc
improper_coeff	5 aa   -0.31570   -0.31570   -0.31570  107.66000  107.66000  107.66000  # c,hc,hc,hc
improper_coeff	6 aa    2.42590    2.42590    2.12830  107.66000  108.72800  108.72800  # c,hc,hc,oc
improper_coeff	7 aa    2.42590    2.42590    2.12830  107.66000  108.72800  108.72800  # c,hc,hc,oh


# --- Thermo Output ---
thermo_style custom step time temp press enthalpy etotal ke pe ebond eangle edihed eimp evdwl ecoul elong etail vol lx ly lz density pxx pyy pzz
thermo_modify flush yes
thermo 1000

# --- Trajectory ---
dump dump_npt all custom 1000 npt_cool.dump id type mol x y z ix iy iz vx vy vz

# --- Restart Checkpointing ---
restart 10000 npt_1.rst npt_2.rst

# --- Initial Velocities (optional) ---
# Velocities read from data file

# --- SHAKE Constraints ---
# SHAKE disabled

# --- NPT Thermostat + Barostat (Nose-Hoover) ---
# T_damp = 100.0 fs  (heat bath coupling)
# P_damp = 1000.0 fs  (pressure bath coupling, ~10x T_damp typical)
# Ramp: T=500.0->300.0K  P=1.0->1.0atm
timestep 1.0
fix npt_fix all npt temp 500.0 300.0 100.0 iso 1.0 1.0 1000.0

run 2000000
PPPM Kokkos initialization ...
  using 12-bit tables for long-range coulomb
  G vector (1/distance) = 0.29927762
  grid = 30 30 30
  stencil order = 5
  estimated absolute RMS force accuracy = 0.00034685727
  estimated relative force accuracy = 1.0445504e-06
  using double precision cuFFT
  3d grid and FFT values/proc = 50653 27000
Generated 10 of 10 mixed pair_coeff terms from sixthpower/sixthpower mixing rule
Neighbor list info ...
  update: every = 1 steps, delay = 0 steps, check = yes
  max neighbors/atom: 4000, page size: 100000
  master list distance cutoff = 11.5
  ghost atom cutoff = 11.5
  binsize = 11.5, bins = 4 4 4
  1 neighbor lists, perpetual/occasional/extra = 1 0 0
  (1) pair lj/class2/coul/long/kk, perpetual
      attributes: full, newton off, kokkos_device
      pair build: full/bin/kk/device
      stencil: full/bin/3d
      bin: kk/device
Per MPI rank memory allocation (min/avg/max) = 31.37 | 31.37 | 31.37 Mbytes
   Step          Time           Temp          Press         Enthalpy        TotEng         KinEng         PotEng         E_bond        E_angle        E_dihed        E_impro         E_vdwl         E_coul         E_long         E_tail         Volume           Lx             Ly             Lz          Density          Pxx            Pyy            Pzz      
         0   0              502.19707     -688.78797      13279.346      14061.183      10507.121      3554.0626      3978.2186      7266.5855     -7833.1049     -83.084178     -1998.6049      7014.5901     -4790.5376     -412.46465      77831.43       42.695785      42.695785      42.695785      0.94031626    -1895.3425     -522.56511      351.5437     
      1000   1000           494.00626      304.14134      14354.132      14006.889      10335.75       3671.1387      4016.037       7338.736      -7870.4227     -88.036831     -1958.7862      7023.7241     -4790.1128     -410.07086      78285.772      42.778703      42.778703      42.778703      0.93485901    -935.77809      642.12186      1206.0802    
      2000   2000           500.11621      1028.4332      15119.393      13973.248      10463.584      3509.6637      3921.2463      7326.8794     -7863.9835     -87.44522      -2030.8324      7034.2902     -4790.491      -420.10153      76416.56       42.435484      42.435484      42.435484      0.95772644     824.79805     -535.02559      2795.5272    
      3000   3000           499.61128     -520.94367      13440.25       14035.765      10453.02       3582.7447      3992.7901      7475.0107     -8025.2534     -88.00217      -2006.8295      7022.0309     -4787.002      -409.55841      78383.724      42.796537      42.796537      42.796537      0.93369077     24.962907     -1127.06       -460.73391    
      4000   4000           502.93521      666.58864      14653.669      13901.694      10522.564      3379.1302      3899.6702      7219.2375     -7863.4908     -81.945943     -2052.8941      7046.2877     -4787.7344     -415.02308      77351.635      42.607871      42.607871      42.607871      0.94614884     310.12144      249.0775       1440.567     
      5000   5000           508.4968      -1264.2399      12830.753      14249.463      10638.925      3610.5374      4103.9406      7278.6927     -7868.3205     -82.541687     -2082.6712      7045.5196     -4784.0822     -417.20878      76946.4        42.533335      42.533335      42.533335      0.95113169    -1117.6951     -2672.671      -2.3534243    
      6000   6000           494.42117      1108.2153      15275.075      14009.683      10344.431      3665.2522      4025.6667      7348.7169     -7890.0024     -87.760975     -1977.018       7029.8972     -4784.2472     -410.03115      78293.352      42.780084      42.780084      42.780084      0.9347685      778.77745      1193.7744      1352.094     
      7000   7000           498.62846      132.77717      14185.275      14035.251      10432.457      3602.7936      3994.6163      7370.7994     -7911.625      -89.231135     -2027.1944      7045.0819     -4779.6535     -414.36136      77475.162      42.63054       42.63054       42.63054       0.94464029     1649.7916      971.83146     -2223.2916    
      8000   8000           495.22584     -101.34301      13725.021      13838.116      10361.267      3476.8495      3996.218       7421.1362     -7922.3823     -90.017158     -2181.5903      7040.4178     -4786.9328     -419.53416      76519.905      42.454605      42.454605      42.454605      0.95643297    -47.062983      391.7766      -648.74263    
      9000   9000           501.51822      1237.5741      15590          14184.293      10492.918      3691.3754      4004.1465      7422.557      -7914.0617     -84.762922     -2024.6901      7057.0813     -4768.8947     -412.1866       77883.934      42.705384      42.705384      42.705384      0.93968237     1793.1365      1535.6106      383.97497    
     10000   10000          495.01077     -38.830532      13829.386      13874.258      10356.767      3517.4918      3981.7507      7318.7112     -7963.6336     -80.983893     -1985.288       7029.5852     -4782.6499     -405.14724      79237.152      42.951297      42.951297      42.951297      0.9236344     -578.14179      2166.5034     -1704.8532    
     11000   11000          501.44354     -370.96914      13538.735      13960.883      10491.355      3469.5279      3894.8248      7332.2464     -7880.9212     -83.898238     -2035.444       7024.153      -4781.4328     -411.42533      78028.043      42.731707      42.731707      42.731707      0.93794688     175.58924     -144.59619     -1143.9005    
     12000   12000          497.49478     -1733.9062      12110.085      14100.691      10408.738      3691.9528      4142.018       7197.6802     -7808.3356     -86.052632     -1969.5033      7006.6829     -4790.5367     -407.81023      78719.737      42.857603      42.857603      42.857603      0.92970534    -1531.9348     -2866.7374     -803.04642    
     13000   13000          492.9503       1.5286833      13777.882      13776.154      10313.657      3462.4968      3874.5619      7306.2209     -7876.8092     -82.447632     -2000.9482      7030.0634     -4788.1444     -413.98875      77544.893      42.643326      42.643326      42.643326      0.94379084     220.98979     -315.83014      99.426395    
     14000   14000          504.55031      230.56244      14344.757      14081.178      10556.356      3524.822       3955.2268      7326.434      -7973.0141     -87.524473     -1943.687       7028.3721     -4780.9851     -409.53856      78387.524      42.797229      42.797229      42.797229      0.93364551    -229.67618      1443.6441     -522.28062    
     15000   15000          495.75492     -28.734628      13830.742      13863.51       10372.336      3491.1736      3851.4717      7354.3401     -7922.5027     -84.358384     -1954.9131      7035.0372     -4787.901      -410.56508      78191.534      42.761531      42.761531      42.761531      0.93598572    -266.57005     -1051.5568      1231.9229    
     16000   16000          503.99516      1734.2095      16229.799      14255.104      10544.741      3710.3631      3987.727       7303.4803     -7807.0014     -85.908769     -1927.3075      7030.8121     -4791.4386     -411.16792      78076.892      42.740622      42.740622      42.740622      0.93736005     2173.3361      440.20603      2589.0863    
     17000   17000          500.33299      84.451056      14055.949      13959.752      10468.12       3491.6327      3940.6936      7309.6752     -7882.5204     -84.472687     -2015.5857      7015.8697     -4792.027      -411.02005      78104.982      42.745747      42.745747      42.745747      0.93702294    -386.2906       625.56097      14.082794    
     18000   18000          494.50133      534.42998      14409.312      13794.829      10346.108      3448.7213      3928.019       7240.4178     -7901.4177     -84.170943     -1984.5442      7030.4766     -4780.0593     -407.19169      78839.314      42.879293      42.879293      42.879293      0.92829524     2280.5601      409.02014     -1086.2903    
     19000   19000          493.84691     -114.34029      13861.11       13990.463      10332.416      3658.0464      4016.2302      7212.9491     -7774.437      -83.399912     -1964.6529      7032.109      -4780.752      -413.85036      77570.824      42.648078      42.648078      42.648078      0.94347534     671.10789     -2229.7761      1215.6473    
     20000   20000          501.29549     -879.33016      12988.452      13984.974      10488.258      3496.7166      3943.0357      7345.935      -7883.0805     -83.489177     -2050.849       7014.7487     -4789.5841     -413.12619      77706.799      42.672983      42.672983      42.672983      0.94182441    -1221.6644      1189.1287     -2605.4548    
     21000   21000          491.8706      -698.89333      13076.229      13872.395      10291.067      3581.3284      4018.4481      7270.3352     -7782.6097     -82.290998     -2064.7506      7011.9155     -4789.7191     -410.98386      78111.86       42.747002      42.747002      42.747002      0.93694043    -1010.4952     -948.08898     -138.09578    
     22000   22000          488.67673     -595.45571      13035.956      13726.381      10224.244      3502.1366      3935.9618      7275.9673     -7905.0301     -83.593296     -1936.2981      7006.4189     -4791.2898     -403.78552      79504.371      42.999526      42.999526      42.999526      0.92053001     54.392809     -460.71177     -1380.0482    
     23000   23000          499.26849     -23.408625      13877.069      13903.684      10445.848      3457.8356      3915.5774      7352.5902     -7940.4694     -80.748332     -2017.2297      7018.4267     -4790.3114     -411.78625      77959.654      42.719219      42.719219      42.719219      0.93876968     676.51329     -358.23988     -388.49929    
     24000   24000          495.85888     -1639.6133      11862.075      13732.25       10374.511      3357.7393      3944.7389      7244.79       -7917.3947     -88.285748     -2037.3293      7005.9591     -4794.7388     -410.46545      78210.513      42.76499       42.76499       42.76499       0.93575859     22.343572     -1288.7875     -3652.3959    
     25000   25000          500.5404      -1441.588       12509.105      14155.947      10472.459      3683.4879      4016.8299      7440.3208     -7919.4914     -83.682175     -1988.9085      7005.3789     -4786.9595     -409.83284      78331.238      42.786983      42.786983      42.786983      0.93431639    -1316.1934     -540.7187      -2467.852     
     26000   26000          506.25049     -752.20428      13151.248      14014.018      10591.927      3422.0905      3884.3169      7181.8        -7881.9941     -85.794035     -1908.5257      7017.6412     -4785.3537     -408.18629      78647.212      42.844437      42.844437      42.844437      0.93056267    -797.16658     -919.68738     -539.75887    
     27000   27000          497.67932      762.28747      14728.475      13861.556      10412.599      3448.9575      3888.5372      7361.1145     -7871.3021     -84.349168     -2063.3189      7004.2846     -4786.0086     -411.67857      77980.046      42.722943      42.722943      42.722943      0.9385242      992.20983      1494.1773     -199.52475    
     28000   28000          490.32534      1080.6989      15073.501      13850.614      10258.737      3591.8776      3981.9277      7385.1064     -7896.8668     -84.826026     -2030.4387      7023.9523     -4786.9773     -413.74811      77589.995      42.651591      42.651591      42.651591      0.94324223     679.24063      308.66494      2254.191     
     29000   29000          503.04887     -1572.2619      12128.661      13898.695      10524.942      3373.7529      3925.3873      7426.7707     -7938.7598     -87.531524     -2176.4218      7011.8048     -4787.4967     -415.87318      77193.518      42.578819      42.578819      42.578819      0.94808685    -1227.3208     -1413.9624     -2075.5025    
     30000   30000          496.65132      1678.3746      15709.54       13801.945      10391.091      3410.8542      3942.3544      7191.5311     -7908.8832     -83.731825     -1980.1435      7032.446      -4782.7189     -411.92712      77932.993      42.714348      42.714348      42.714348      0.93909084     2313.6199      1483.3586      1238.1452    
     31000   31000          496.623        428.56973      14488.585      14006.518      10390.498      3616.0199      3952.8752      7435.2261     -7918.7387     -82.262078     -2003.9679      7016.0484     -4783.1612     -416.22827      77127.662      42.566707      42.566707      42.566707      0.94889638     43.718867      1789.3594     -547.36911    
     32000   32000          492.39209      1610.3814      15742.914      13911.558      10301.978      3609.5802      4042.6907      7215.9569     -7844.9231     -83.735926     -1957.5595      7025.5742     -4788.4229     -411.69321      77977.273      42.722437      42.722437      42.722437      0.93855757     1287.1209      177.33315      3366.6901    
     33000   33000          500.67599      851.59584      14999.498      14035.619      10475.296      3560.3233      3965.0167      7363.4357     -7966.6531     -80.738602     -1955.3319      7018.4519     -4783.8574     -413.64581      77609.183      42.655107      42.655107      42.655107      0.94300902    -109.70225      1035.9349      1628.5549    
     34000   34000          505.22379     -1062.6364      12779.732      13991.456      10570.447      3421.0091      4038.3107      7290.9551     -8000.9223     -81.852672     -2058.6843      7026.2834     -4793.0808     -410.58078      78188.545      42.760986      42.760986      42.760986      0.93602151    -1226.748      -463.12514     -1498.036     
     35000   35000          493.90787     -382.13827      13493.103      13933.634      10333.692      3599.9425      3951.4752      7373.4978     -7939.7676     -85.418562     -1951.793       7035.7045     -4783.7559     -406.12685      79046.026      42.916736      42.916736      42.916736      0.92586766     1672.4002     -2256.3849     -562.4301     
     36000   36000          493.84153     -577.63358      13115.769      13773.827      10332.303      3441.5233      3955.5991      7226.8551     -7911.8634     -81.257763     -1996.6737      7029.1288     -4780.2647     -410.96647      78115.166      42.747605      42.747605      42.747605      0.93690078    -1642.7955      413.83361     -503.93879    
     37000   37000          507.04557     -609.15597      13598.643      14298.903      10608.563      3690.341       4034.8569      7297.9625     -7838.5378     -87.064429     -1938.3793      7011.4278     -4789.9246     -407.27375      78823.43       42.876413      42.876413      42.876413      0.9284823     -1853.1556     -1363.1058      1388.7936    
     38000   38000          500.06473      1699.0438      15720.344      13788.492      10462.507      3325.9848      3831.086       7269.6899     -7905.0165     -82.318997     -2000.5294      7007.6297     -4794.5558     -411.76403      77963.86       42.719987      42.719987      42.719987      0.93871903     2874.3566     -523.18599      2745.9609    
     39000   39000          506.37873      1256.5634      15581.829      14134.772      10594.611      3540.1619      4046.4978      7122.696      -7862.0411     -80.504104     -1910.4661      7013.5651     -4789.5856     -406.55238      78963.291      42.901757      42.901757      42.901757      0.92683776     244.06777      1568.8181      1956.8045    
     40000   40000          498.06983      463.8332       14467.5        13934.4        10420.769      3513.6311      3956.1512      7255.4831     -7851.5244     -87.073277     -1986.9146      7018.0635     -4790.5544     -407.35301      78808.092      42.873632      42.873632      42.873632      0.92866301     1282.667      -74.979519      183.81209    
     41000   41000          494.68939     -626.63404      13036.326      13751.613      10350.043      3401.57        3968.9837      7262.4891     -7889.7347     -83.197437     -2064.0621      6998.3507     -4791.2592     -410.15814      78269.113      42.775668      42.775668      42.775668      0.93505799    -981.33081     -647.50687     -251.06445    
     42000   42000          496.09134      1119.9627      14999.623      13730.837      10379.375      3351.4623      3945.2333      7226.348      -7950.6666     -82.407594     -2013.9082      7017.1581     -4790.2947     -413.26912      77679.924      42.668063      42.668063      42.668063      0.94215024     1729.6604      668.00423      962.22363    
     43000   43000          489.10302     -845.1459       12812.097      13786.356      10233.163      3553.1929      3966.3549      7270.559      -7916.6083     -84.107463     -1939.6127      7037.2732     -4780.6656     -406.13927      79043.608      42.916298      42.916298      42.916298      0.92589599    -463.29845     -293.62119     -1778.5181    
     44000   44000          494.73055      1146.5719      15254.663      13953.174      10350.904      3602.2707      3990.0552      7393.345      -7914.2287     -85.79336      -2006.2601      7017.2727     -4792.1201     -412.45696      77832.882      42.696051      42.696051      42.696051      0.94029872    -312.98889      2231.3618      1521.3426    
     45000   45000          491.66269      587.35612      14302.941      13635.723      10286.717      3349.0059      3869.5011      7437.5882     -7978.2718     -80.832095     -2131.1474      7015.8512     -4783.6834     -412.14626      77891.556      42.706777      42.706777      42.706777      0.93959042     585.00873      2141.1014     -964.04174    
     46000   46000          496.41467     -346.295        13422.243      13814.488      10386.139      3428.3484      4033.8925      7288.2308     -7956.9779     -88.747044     -2080.5008      7024.6122     -4792.1614     -413.33938      77666.72       42.665646      42.665646      42.665646      0.94231042    -1397.4288     -355.63063      714.17444    
     47000   47000          491.67704     -82.464565      13507.417      13600.323      10287.017      3313.306       3887.3989      7303.6569     -7975.2944     -88.260109     -2051.8049      7029.8946     -4792.285      -415.56707      77250.38       42.589271      42.589271      42.589271      0.947389       276.3791      -1229.8897      706.11694    
     48000   48000          495.13605     -1937.5823      11601.33       13812.506      10359.388      3453.1177      4043.8413      7146.3791     -7834.803      -86.328812     -2061.2586      7028.0471     -4782.7593     -410.25569      78250.502      42.772278      42.772278      42.772278      0.93528039    -856.82895     -1602.8372     -3353.0808    
     49000   49000          490.8004      -274.66614      13419.406      13730.128      10268.676      3461.4522      3856.3113      7286.365      -7824.8705     -82.144978     -1993.6347      7015.438      -4796.0118     -413.85661      77569.653      42.647864      42.647864      42.647864      0.94348959    -968.32695      1290.4078     -1146.0793    
     50000   50000          497.66615     -1214.6786      12490.931      13874.708      10412.323      3462.3848      3923.5243      7390.3791     -7933.0523     -89.276353     -2053.5031      7008.6373     -4784.3242     -410.9725       78114.019      42.747396      42.747396      42.747396      0.93691453    -1115.7421     -814.10333     -1714.1904    
     51000   51000          496.45488     -844.30034      13007.463      13964.328      10386.981      3577.347       4037.5323      7323.6239     -7894.6423     -87.11425      -2050.4578      7032.1876     -4783.7825     -413.10821      77710.182      42.673603      42.673603      42.673603      0.94178341    -743.96677     -1572.0931     -216.84114    
     52000   52000          496.4502      -2333.1351      11258.752      13900.553      10386.883      3513.6705      3973.2378      7268.9893     -7799.1276     -80.642568     -2107.0161      7038.2349     -4780.0051     -413.48272      77639.795      42.660715      42.660715      42.660715      0.9426372     -2857.3189     -2811.6735     -1330.4131    
     53000   53000          495.48319     -323.5246       13453.575      13819.486      10366.651      3452.8351      3975.3621      7275.129      -7911.9377     -79.457796     -2049.293       7031.6737     -4788.6413     -413.95141      77551.888      42.644608      42.644608      42.644608      0.94370571    -961.84303     -1006.7809      998.05016    
     54000   54000          493.17219     -1230.0409      12411.525      13799.019      10318.299      3480.7201      4027.3326      7251.9555     -7853.8763     -79.469435     -2086.4943      7012.0885     -4790.8166     -415.05542      77345.607      42.606764      42.606764      42.606764      0.94622258    -694.00482     -2294.8482     -701.26981    
     55000   55000          494.09362     -42.667337      13922.949      13971.733      10337.578      3634.1556      3927.7931      7415.961      -7873.839      -87.053857     -2028.0112      7054.5067     -4775.2011     -409.47593      78399.513      42.799411      42.799411      42.799411      0.93350273     1449.3781     -875.75894     -701.62113    
     56000   56000          494.10041     -865.92639      12770.83       13747.875      10337.72       3410.155       3904.5484      7322.74       -7889.7165     -81.503065     -2082.6802      7022.6129     -4785.8466     -414.93895      77367.317      42.61075       42.61075       42.61075       0.94595705    -1504.8845      901.54823     -1994.4429    
     57000   57000          491.01231     -660.51163      13148.438      13894.581      10273.11       3621.471       3966.3945      7451.9777     -7881.5088     -87.528291     -2095.9554      7044.0097     -4775.9185     -414.45414      77457.819      42.627359      42.627359      42.627359      0.9448518      344.75747     -1587.3107     -738.98167    
     58000   58000          487.0313       614.13648      14497.886      13791.333      10189.818      3601.515       3886.0118      7344.4813     -7795.8621     -83.727965     -2011.4234      7048.7204     -4786.685      -406.94702      78886.715      42.887884      42.887884      42.887884      0.92773745     61.107203      689.01115      1092.2911    
     59000   59000          499.84686     -84.402377      13707.055      13802.5        10457.949      3344.551       3864.5694      7244.2383     -7863.8502     -84.971837     -2062.052       7036.023      -4789.4057     -414.01848      77539.325      42.642305      42.642305      42.642305      0.94385861     1058.1299      1421.8713     -2733.2083    
     60000   60000          491.63005      501.53566      14503.357      13925.607      10286.034      3639.5731      4018.3919      7399.9669     -7902.217      -87.510004     -2006.3321      7010.6349     -4793.3615     -406.42441      78988.154      42.906259      42.906259      42.906259      0.92654602     229.30217     -212.22056      1487.5254    
     61000   61000          487.46738     -585.6266       13124.122      13796.217      10198.942      3597.2751      3970.063       7261.9994     -7845.9342     -87.585249     -1936.3286      7021.864      -4786.8032     -407.95076      78692.618      42.852681      42.852681      42.852681      0.93002573     910.45703     -1917.2962     -750.04067    
     62000   62000          496.0982      -1364.7645      12500.119      14060.627      10379.518      3681.1086      3989.1553      7416.4127     -7846.5594     -86.35783      -2030.8561      7026.0286     -4786.7148     -409.45816      78402.916      42.80003       42.80003       42.80003       0.93346221     70.764785     -2439.7858     -1725.2725    
     63000   63000          491.64077     -1047.2309      12569.493      13780.823      10286.258      3494.5641      3833.6037      7284.67       -7945.6639     -83.072047     -1820.723       7014.3654     -4788.6161     -404.7602       79312.921      42.964983      42.964983      42.964983      0.92275204    -1373.9775     -480.55264     -1287.1627    
     64000   64000          492.61385      372.31713      14004.061      13581.862      10306.618      3275.2447      3815.8061      7190.7973     -7872.4785     -85.888592     -2031.501       7039.5147     -4781.0052     -412.87042      77754.937      42.681793      42.681793      42.681793      0.94124132    -1378.9021      1534.8755      960.97803    
     65000   65000          496.6231       725.19452      14821.943      13991.826      10390.5        3601.326       3856.3076      7335.6281     -7805.1497     -84.827493     -1957.4423      7034.8433     -4778.0335     -409.00905      78489.006      42.81569       42.81569       42.81569       0.93243835     1175.0726     -197.25259      1197.7635    
     66000   66000          487.71779      280.40004      13817.461      13499.397      10204.181      3295.2161      3905.9694      7134.2279     -7882.3477     -85.173987     -2006.2104      7015.0584     -4786.3076     -412.74374      77778.801      42.686159      42.686159      42.686159      0.94095253    -817.0148       328.14496      1330.07      
     67000   67000          491.80599     -1658.7684      11847.134      13755.564      10289.715      3465.8484      3877.1179      7310.7579     -7882.2996     -80.754886     -1997.113       7018.4467     -4780.3067     -406.93706      78888.646      42.888234      42.888234      42.888234      0.92771475    -858.69078     -1744.562      -2373.0525    
     68000   68000          500.54934      1731.07        15934.192      13958.843      10472.646      3486.1964      3870.1878      7228.4229     -7779.6046     -78.83319      -1979.1885      7011.8327     -4786.6206     -410.28763      78244.41       42.771168      42.771168      42.771168      0.93535321     2393.917       1383.5304      1415.7627    
     69000   69000          497.79069     -271.32667      13517.02       13829.222      10414.929      3414.2929      3917.0316      7254.8432     -7982.3808     -81.033953     -1939.5027      7024.0981     -4778.7624     -406.88796      78898.166      42.889959      42.889959      42.889959      0.9276028      657.21265     -1403.8532     -67.33943     
     70000   70000          490.65049      1164.5867      15093.944      13764.779      10265.54       3499.2398      3944.3592      7266.5597     -7898.1556     -81.228383     -1956.1619      7011.8338     -4787.9669     -410.21407      78258.441      42.773724      42.773724      42.773724      0.9351855      1830.2164     -523.21077      2186.7543    
     71000   71000          495.77009      1256.6772      15347.222      13904.408      10372.653      3531.7544      3951.2608      7265.4382     -7898.298      -86.256586     -1947.2989      7031.8733     -4784.9645     -407.78462      78724.679      42.8585        42.8585        42.8585        0.92964697     2030.1213      557.91993      1181.9903    
     72000   72000          497.74881      628.48243      14451.43       13738.309      10414.053      3324.2562      3821.3143      7115.4343     -7805.5511     -78.371194     -1968.6424      7023.6911     -4783.6188     -412.61717      77802.661      42.690524      42.690524      42.690524      0.94066397     1381.168      -293.7445       798.02378    
     73000   73000          495.98596      20.43236       13706.189      13682.927      10377.17       3305.7572      3892.2368      7088.3178     -7885.4457     -79.911717     -1954.4532      7031.2103     -4786.1971     -411.23237      78064.656      42.738389      42.738389      42.738389      0.93750697     2186.2983     -2062.8104     -62.190809    
     74000   74000          494.53974      56.913932      13824.77       13759.506      10346.912      3412.5945      3920.7467      7215.5626     -7903.42       -86.521797     -1985.3147      7035.254      -4783.7124     -408.2836       78628.466      42.841033      42.841033      42.841033      0.93078452    -414.3788       753.55693     -168.43634    
     75000   75000          485.6145      -256.64567      13329.56       13620.492      10160.175      3460.3175      3905.6389      7338.8391     -7881.0748     -85.852765     -2064.4861      7032.1981     -4784.9449     -413.00875      77728.895      42.677028      42.677028      42.677028      0.94155667     1298.4664     -738.62694     -1329.7765    
     76000   76000          498.40974     -549.57572      13229.907      13850.677      10427.881      3422.7959      3973.653       7387.2842     -7984.0189     -86.123287     -2103.249       7016.7665     -4781.5166     -414.49039      77451.045      42.626116      42.626116      42.626116      0.94493443    -226.71305     -736.20783     -685.80629    
     77000   77000          498.7466      -467.22725      13176.51       13709.438      10434.929      3274.5091      3872.1971      7167.2299     -7917.1722     -80.698177     -2022.8363      7039.8165     -4784.0277     -410.4658       78210.447      42.764978      42.764978      42.764978      0.93575938     532.18473     -1128.1792     -805.6873     
     78000   78000          497.73491      334.83917      13982.521      13605.456      10413.762      3191.6943      3847.4084      7133.3076     -7949.6343     -82.580067     -1988.521       7025.5473     -4793.8337     -415.75514      77215.435      42.582848      42.582848      42.582848      0.94781775     906.71551      280.44486     -182.64285    
     79000   79000          485.93036     -130.59278      13523.81       13674.659      10166.784      3507.8751      3935.4088      7330.9563     -7902.958      -83.73659      -2001.8466      7013.9268     -4783.8755     -405.31677      79204.011      42.945308      42.945308      42.945308      0.92402088     397.23803     -244.47271     -544.54365    
     80000   80000          501.71201     -171.8124       13563.963      13758.531      10496.972      3261.5589      3920.2916      7103.5893     -7874.47       -75.362098     -2052.8535      7022.864      -4782.5004     -413.42865      77649.949      42.662574      42.662574      42.662574      0.94251394    -1187.1557      882.81067     -211.09214    
     81000   81000          498.64284     -1628.4363      12103.272      13980.636      10432.758      3547.878       3895.103       7415.2481     -7947.5129     -86.562431     -1967.9415      7029.0918     -4789.548      -406.1066       79049.968      42.917449      42.917449      42.917449      0.92582149    -817.0222      -1284.507      -2783.7797    
     82000   82000          492.6555      -474.06746      13054.549      13587.923      10307.489      3280.4343      3846.9283      7247.2257     -7905.0054     -85.993993     -2074.2262      7033.4992     -4781.9933     -416.1269       77146.452      42.570164      42.570164      42.570164      0.94866527    -82.381962     -1650.8157      310.99526    
     83000   83000          495.85935      1486.8913      15463.578      13766.941      10374.521      3392.4203      3914.4621      7265.624      -8006.5025     -83.704496     -1941.2023      7025.7135     -4781.9699     -410.30624      78240.861      42.770521      42.770521      42.770521      0.93539563     967.01757      1805.2201      1688.4361    
     84000   84000          493.56324     -648.61943      12824.506      13557.958      10326.481      3231.4769      3847.6741      7193.9539     -7856.688      -84.573956     -2123.9287      7035.1242     -4780.0846     -414.03411      77536.398      42.641768      42.641768      42.641768      0.94389424     321.32466     -1698.0016     -569.18136    
     85000   85000          490.02123      1569.7269      15452.122      13667.295      10252.374      3414.9209      3862.9443      7420.6828     -7997.8193     -84.045328     -2026.8043      7024.6075     -4784.6447     -411.76141      77964.357      42.720078      42.720078      42.720078      0.93871306     1305.8583      2484.921       918.40132    
     86000   86000          489.22621     -14.036798      13356.441      13372.131      10235.74       3136.3907      3812.798       7219.7803     -7953.8631     -80.582804     -2101.5846      7027.5204     -4787.6775     -418.84677      76645.485      42.477817      42.477817      42.477817      0.9548659     -222.34538      82.458853      97.776136    
     87000   87000          495.33651     -244.17531      13414.291      13690.897      10363.582      3327.3155      3886.0508      7300.4334     -7920.8694     -84.052105     -2088.9512      7026.812      -4792.108      -413.2923       77675.567      42.667266      42.667266      42.667266      0.94220309     206.5433       795.88265     -1734.9519    
     88000   88000          490.83403     -122.9871       13563.351      13702.433      10269.38       3433.0531      3975.6403      7184.2613     -7845.1878     -85.063261     -2053.3886      7036.9385     -4780.1474     -414.00765      77541.354      42.642677      42.642677      42.642677      0.94383391     1514.2918     -709.97474     -1173.2783    
     89000   89000          490.03926      538.94376      14219.134      13614.396      10252.751      3361.645       3908.0519      7254.9037     -7978.0605     -79.812595     -1965.0822      7009.2389     -4787.5941     -417.24739      76939.28       42.532023      42.532023      42.532023      0.95121971     1720.0854      480.62879     -583.88291    
     90000   90000          499.79407      301.81017      14085.435      13742.961      10456.844      3286.1164      3906.1307      7076.2109     -7832.5767     -85.845631     -2037.4806      7042.1221     -4782.4444     -412.59436      77806.961      42.69131       42.69131       42.69131       0.94061198    -359.50096      2340.285      -1075.3535    
     91000   91000          483.82709      83.549437      13596.358      13502.497      10122.778      3379.7183      3889.4359      7490.9808     -7995.3491     -86.024723     -2135.2736      7008.3472     -4792.3983     -416.74659      77031.736      42.549053      42.549053      42.549053      0.95007802    -515.85936      9.4104183      757.09725    
     92000   92000          492.01975     -594.27143      13010.817      13687.484      10294.188      3393.2963      3887.1563      7258.72       -7874.9657     -85.308219     -2016.2348      7014.3761     -4790.4475     -411.17562      78075.431      42.740355      42.740355      42.740355      0.9373776     -143.62738     -2124.1188      484.93186    
     93000   93000          490.77204     -78.890803      13522.49       13611.652      10268.083      3343.5697      3875.7445      7312.992      -7959.5257     -83.752212     -2033.1308      7017.6935     -4786.4516     -414.25142      77495.724      42.634311      42.634311      42.634311      0.94438964     621.36109      220.75492     -1078.7884    
     94000   94000          488.96554     -110.28752      13693.461      13818.05       10230.286      3587.764       4096.8837      7188.1464     -7876.6487     -87.581451     -1952.5863      7006.9003     -4787.3501     -414.44268      77459.96       42.627751      42.627751      42.627751      0.94482569    -1321.2055      2105.9548     -1115.6119    
     95000   95000          485.80162     -894.29326      12536.403      13538.793      10164.09       3374.7033      3994.4388      7213.4669     -7854.4749     -85.187934     -2103.0036      7004.8618     -4795.3978     -417.69637      76856.579      42.516778      42.516778      42.516778      0.95224327    -2112.3933      833.33105     -1403.8175    
     96000   96000          494.38187      95.600609      13671.021      13562.103      10343.609      3218.4945      3811.5839      7207.8211     -7847.8077     -82.540955     -2097.9759      7015.0029     -4787.5888     -410.94007      78120.183      42.74852       42.74852       42.74852       0.9368406      1235.2203     -762.40924     -186.00923    
     97000   97000          488.81901     -264.47856      13110.968      13406.215      10227.221      3178.9946      3871.8548      7294.9549     -7947.834      -87.73665      -2167.9317      7001.9367     -4786.2495     -419.39386      76545.502      42.459339      42.459339      42.459339      0.95611313     708.07347      50.080071     -1551.5892    
     98000   98000          490.8627       636.74272      14180.992      13462.298      10269.979      3192.3189      3816.4986      7278.0743     -7964.06       -85.357479     -2075.855       7014.7971     -4791.7786     -414.79907      77393.409      42.61554       42.61554       42.61554       0.94563815     355.41867      473.2245       1081.585     
     99000   99000          484.0498      -12.365214      13283.304      13297.174      10127.438      3169.7357      3965.43        7065.3358     -7839.1163     -85.869461     -2151.8581      7008.2258     -4792.412      -417.39225      76912.576      42.527102      42.527102      42.527102      0.95154997     1757.068      -3124.3622      1330.1985    
    100000   100000         489.2663       157.42887      13619.977      13443.133      10236.579      3206.5539      3933.5526      7160.8151     -7906.4961     -79.721104     -2126.5176      7012.7171     -4787.7962     -416.78466      77024.701      42.547757      42.547757      42.547757      0.9501648     -99.259587     -136.3182       707.8644     
    101000   101000         493.03207     -666.51456      12816.382      13569.776      10315.368      3254.4083      3974.4741      7179.5772     -7974.2914     -80.684515     -2054.5358      6998.4466     -4788.5779     -414.19525      77506.233      42.636238      42.636238      42.636238      0.9442616     -1119.5467     -893.46692      13.469919    
    102000   102000         491.23899      185.93744      13819.761      13612.059      10277.852      3334.2066      3961.1054      7206.6015     -7925.4099     -84.589262     -2069.3359      7032.9387     -4787.1041     -419.1258       76594.459      42.468389      42.468389      42.468389      0.95550201    -639.90548     -195.39965      1393.1174    
    103000   103000         493.44645      387.52847      13996.212      13562.713      10324.037      3238.6759      3855.286       7401.2617     -8037.3166     -89.822867     -2124.6408      7020.5319     -4786.6234     -418.53696      76702.218      42.488295      42.488295      42.488295      0.95415962     380.06715     -121.49596      904.0142     
    104000   104000         481.11965      72.322167      13409.553      13328.011      10066.132      3261.8781      3946.9957      7086.0739     -7917.0194     -81.604306     -2026.2962      7036.4967     -4782.7683     -415.24573      77310.159      42.600254      42.600254      42.600254      0.94665644     149.39751      463.99542     -396.42643    
    105000   105000         484.98421      296.00412      13790.082      13455.794      10146.988      3308.8064      3947.1019      7227.2479     -7952.4195     -80.3549       -2048.4736      7006.3041     -4790.5995     -414.56713      77436.708      42.623485      42.623485      42.623485      0.94510939     890.32145      1211.4717     -1213.7808    
    106000   106000         488.22096     -1695.1542      11629.423      13564.87       10214.708      3350.1621      3937.9875      7341.9078     -7902.9277     -84.678871     -2136.516       6992.1541     -4797.7648     -410.05815      78288.197      42.779145      42.779145      42.779145      0.93483005    -2149.0511     -681.78869     -2254.6228    
    107000   107000         496.49291      491.93634      14015.87       13468.269      10387.777      3080.4926      3884.1341      7130.7504     -7923.1002     -83.798867     -2175.4036      7029.7587     -4781.8479     -420.59326      76327.218      42.41894       42.41894       42.41894       0.95884746     119.69354     -717.66094      2073.7764    
    108000   108000         489.52365     -649.39262      12929.299      13663.455      10241.963      3421.4911      3950.1449      7362.2338     -8040.0463     -89.030535     -2023.3122      7045.1374     -4783.6359     -414.13011      77518.424      42.638473      42.638473      42.638473      0.9441131      1275.171      -1910.648      -1312.7008    
    109000   109000         497.96172     -254.33139      13504.156      13789.785      10418.507      3371.2779      3991.1107      7239.2541     -7898.0695     -82.913964     -2163.8067      7062.1101     -4776.4069     -416.88366      77006.408      42.544389      42.544389      42.544389      0.95039051    -638.81267     -1354.2976      1230.1161    
    110000   110000         482.34787      280.19135      13694.394      13381.269      10091.83       3289.4392      3983.339       7252.0948     -8018.7256     -82.406504     -2098.492       7042.5354     -4788.9059     -418.94279      76627.917      42.474572      42.474572      42.474572      0.95508481     2830.4605      263.90986     -2253.7963    
    111000   111000         493.55019     -563.99567      13000.152      13635.296      10326.208      3309.0878      3833.0212      7360.925      -7926.8336     -82.65072      -2115.1783      7028.2298     -4788.4256     -415.73982      77218.28       42.583371      42.583371      42.583371      0.94778283    -948.30717      18.091759     -761.7716     
    112000   112000         485.71807     -116.39985      13120.743      13252.3        10162.342      3089.9579      3841.4994      7173.1093     -7970.1281     -81.078964     -2078.2882      7000.3909     -4795.5464     -414.24419      77497.077      42.634559      42.634559      42.634559      0.94437316    -543.33159      286.81341     -92.681353    
    113000   113000         489.81567     -792.18136      12547.048      13450.254      10248.073      3202.1813      3970.0447      7047.9504     -7959.3991     -79.742091     -2011.9123      7018.2933     -4783.0537     -410.63451      78178.314      42.759121      42.759121      42.759121      0.936144      -2923.3287     -202.64971      749.43435    
    114000   114000         500.08603      391.88161      14097.65       13656.69       10462.953      3193.7374      3907.0125      7193.3338     -7980.6955     -86.284761     -2070.4988      7020.2442     -4789.374      -416.07732      77155.644      42.571854      42.571854      42.571854      0.94855225    -336.13949      1147.6438      364.14055    
    115000   115000         489.85935     -587.20177      12828.431      13494.763      10248.987      3245.7761      3939.2056      7165.3018     -7943.0012     -85.446649     -2072.6198      7028.1689     -4785.8326     -412.58572      77808.592      42.691609      42.691609      42.691609      0.94059226    -386.51175      45.997924     -1421.0915    
    116000   116000         481.46244      1931.1195      15456.543      13273.643      10073.304      3200.3389      3894.0804      7068.3798     -7895.5674     -80.819914     -2025.8449      7026.4814     -4786.3704     -414.18372      77508.391      42.636634      42.636634      42.636634      0.94423531     2186.6529      2046.8695      1559.8362    
    117000   117000         490.94198      2719.0677      16630.426      13563.462      10271.638      3291.824       3813.2311      7309.0638     -7935.616      -80.453505     -2068.6231      7035.017      -4780.7953     -415.07737      77341.518      42.606013      42.606013      42.606013      0.9462726      2101.6813      2325.3292      3730.1926    
    118000   118000         483.12953     -553.89308      12420.5        13043.665      10108.184      2935.4808      3863.0643      6904.2915     -7927.4002     -76.499584     -2040.7427      7000.9331     -4788.1655     -416.14096      77143.844      42.569684      42.569684      42.569684      0.94869734    -1422.76       -116.57797     -122.34125    
    119000   119000         481.78664     -1833.3702      11267.943      13355.534      10080.087      3275.4462      3892.9822      7106.2201     -7778.7393     -85.651864     -2104.8906      7028.6939     -4783.1682     -411.17092      78076.324      42.740518      42.740518      42.740518      0.93736688    -1990.244      -2334.142      -1175.7246    
    120000   120000         487.84087      1194.4746      14846.055      13495.167      10206.756      3288.4114      3826.0601      7124.9455     -7853.6545     -83.710512     -1972.9433      7030.7722     -4783.0581     -413.97623      77547.238      42.643756      42.643756      42.643756      0.9437623      2120.8515      1501.9988     -39.426415    
    121000   121000         485.88158      35.905151      13346.667      13305.837      10165.763      3140.0743      3814.4844      7180.2789     -7910.2753     -80.572784     -2084.894       7010.1119     -4789.0589     -411.72024      77972.153      42.721502      42.721502      42.721502      0.9386192     -1368.5667      1008.7679      467.51428    
    122000   122000         490.56369      54.493792      13728.787      13666.531      10263.724      3402.807       3940.6934      7242.4786     -7910.6901     -87.618118     -2015.7502      7020.9923     -4787.2989     -409.80507      78336.545      42.787949      42.787949      42.787949      0.9342531      310.90124     -332.50742      185.08756    
    123000   123000         482.24716     -391.96961      12899.627      13344.369      10089.723      3254.6465      3903.6405      7218.461      -7891.4026     -86.542241     -2107.5425      7004.1877     -4786.1554     -412.63109      77800.037      42.690044      42.690044      42.690044      0.9406957     -209.13187     -388.54762     -578.22933    
    124000   124000         489.10627      1830.4603      15730.948      13644.694      10233.231      3411.4627      3884.2819      7352.3353     -7917.295      -83.011267     -2053.24        7018.7463     -4790.3545     -410.78129      78150.379      42.754027      42.754027      42.754027      0.93647863     3327.2384      1791.7951      372.3474     
    125000   125000         488.28753      110.10101      13654.163      13527.976      10216.101      3311.8745      3846.7136      7269.9362     -7985.813      -87.659562     -1990.9278      7038.8541     -4779.2291     -408.49903      78587          42.833501      42.833501      42.833501      0.93127565    -987.41142      100.52531      1217.1891    
    126000   126000         476.74811      1309.2038      14958.486      13448.406      9974.6698      3473.736       3928.1333      7106.8368     -7849.7983     -81.70663      -1890.212       7036.2923     -4775.8094     -405.90548      79089.135      42.924536      42.924536      42.924536      0.92536301     972.61281      2508.6358      446.36279    
    127000   127000         485.72618      1805.3746      15591.215      13511.918      10162.512      3349.4067      3876.8869      7261.1153     -7978.5919     -84.084547     -1933.267       6999.2904     -4791.9424     -406.50738      78972.032      42.90334       42.90334       42.90334       0.92673517     1614.7304      1761.9914      2039.402     
    128000   128000         488.33858     -1006.3654      12470.346      13619.043      10217.169      3401.8743      3870.7371      7300.1368     -7924.4455     -85.17504      -1969.9857      7000.4645     -4789.858      -410.17347      78266.188      42.775135      42.775135      42.775135      0.93509294    -2214.6412     -1628.0851      823.6302     
    129000   129000         480.43752      1191.6157      14642.721      13297.624      10051.861      3245.7636      3774.3475      7299.2087     -7937.6968     -86.555302     -2021.1376      7001.2003     -4783.6032     -414.76338      77400.067      42.616762      42.616762      42.616762      0.9455568      511.82475      1026.0715      2036.9509    
    130000   130000         492.23281      730.77515      14525.762      13691.853      10298.645      3393.208       3909.4241      7188.3352     -7891.0882     -81.141303     -1986.6166      7036.0598     -4781.7649     -410.28235      78245.417      42.771351      42.771351      42.771351      0.93534117     360.87204      1692.8266      138.62684    
    131000   131000         493.07305      416.77151      13979.495      13504.242      10316.225      3188.0164      3823.7912      7094.4927     -7907.4058     -85.042447     -1977.1661      7028.0637     -4788.7169     -410.57266      78190.092      42.761268      42.761268      42.761268      0.93600299     505.70905      279.49876      465.10672    
    132000   132000         492.14111      397.22261      14145.317      13694.373      10296.727      3397.6461      3928.6364      7334.5832     -7985.0116     -85.89126      -2002.1312      7004.3952     -4796.9345     -412.40952      77841.834      42.697687      42.697687      42.697687      0.94019059    -737.50505      1510.4597      418.71315    
    133000   133000         489.31482     -276.62793      13214.327      13526.706      10237.594      3289.1119      3896.4924      7232.6404     -7974.2658     -79.435966     -2025.9436      7019.7509     -4780.1263     -414.60169      77430.254      42.622301      42.622301      42.622301      0.94518817    -1223.7154     -1101.5522      1495.3838    
    134000   134000         487.77303      1412.5225      15013.907      13420.077      10205.337      3214.7407      3867.1426      7230.1312     -7957.4761     -83.346903     -2073.7402      7023.0947     -4791.0646     -414.92637      77369.663      42.611181      42.611181      42.611181      0.94592838     1493.224       1771.1188      973.22456    
    135000   135000         497.81135     -594.70643      12925.386      13598.792      10415.361      3183.4313      3782.4523      7231.4492     -7923.8225     -88.96031      -2056.699       7024.4596     -4785.4481     -413.46914      77642.344      42.661182      42.661182      42.661182      0.94260626    -325.90076     -1611.4463      153.22778    
    136000   136000         486.96465      453.17123      13822.401      13311.436      10188.423      3123.0129      3866.7293      7221.8675     -7994.7315     -85.177605     -2160.8469      7051.317      -4776.1449     -415.23048      77312.998      42.600776      42.600776      42.600776      0.94662167     930.87487      1361.7412     -933.10238    
    137000   137000         487.4655       2166.528       16061.127      13607.527      10198.902      3408.6252      3891.2782      7301.9493     -7924.0632     -84.092451     -2030.4505      7038.3203     -4784.3164     -413.40737      77653.945      42.663306      42.663306      42.663306      0.94246544     1811.35        1278.741       3409.4932    
    138000   138000         487.75249     -585.82264      12636.26       13300.724      10204.907      3095.8171      3831.0839      7148.8441     -8034.276      -80.51417      -2002.1141      7020.7631     -4787.9697     -412.7742       77773.062      42.685109      42.685109      42.685109      0.94102197    -281.26347      55.643344     -1531.8478    
    139000   139000         482.29493      219.54695      13569.276      13322.456      10090.722      3231.7341      3887.4734      7199.2226     -7880.3462     -86.177663     -2120.5773      7022.8079     -4790.6687     -416.45134      77086.35       42.559106      42.559106      42.559106      0.94940492    -163.60276      312.37261      509.87099    
    140000   140000         489.10389      1126.7296      14818.874      13540.483      10233.181      3307.3013      3784.4256      7278.912      -7929.522      -86.687423     -1947.4427      7005.8978     -4798.2819     -412.64191      77797.995      42.68967       42.68967       42.68967       0.94072038     2540.5747      1597.8505     -758.2365     
    141000   141000         483.07654     -63.444301      13153.743      13225.323      10107.075      3118.2483      3795.0636      7205.1897     -7945.6423     -77.096913     -2076.0364      7007.4611     -4790.6906     -414.96866      77361.78       42.609733      42.609733      42.609733      0.94602477    -1602.9314      1089.2784      323.32019    
    142000   142000         484.26483     -475.5839       12816.048      13354.276      10131.937      3222.3389      3901.3818      7102.7407     -7953.1278     -79.526326     -1974.8533      7021.313      -4795.5891     -413.69341      77600.255      42.653471      42.653471      42.653471      0.94311752    -884.82599     -68.653346     -473.27237    
    143000   143000         481.2598      -782.19092      12454.916      13333.04       10069.065      3263.9749      3905.5609      7365.1632     -7997.6817     -83.717901     -2160.3105      7024.7882     -4789.8274     -417.03737      76978.026      42.539161      42.539161      42.539161      0.95074093    -514.31239      579.20423     -2411.4646    
    144000   144000         488.64158      1198.3961      14762.759      13424.982      10223.508      3201.4734      3857.2191      7241.1164     -7958.7822     -78.821062     -2089.4594      7019.817      -4789.6164     -419.40561      76543.357      42.458942      42.458942      42.458942      0.95613992     547.78311      1846.7963      1200.6088    
    145000   145000         475.72232      705.78559      13873.557      13081.525      9953.2079      3128.3172      3895.4851      7190.8778     -7937.9969     -77.989386     -2156.0733      7002.0666     -4788.0527     -417.2032       76947.43       42.533525      42.533525      42.533525      0.95111896     124.70559      1184.8708      807.78039    
    146000   146000         491.34214      664.37922      14158.179      13410.645      10280.01       3130.6348      3825.5896      7304.1457     -8030.9696     -89.129813     -2108.7956      7020.4935     -4790.699      -416.10518      77150.478      42.570904      42.570904      42.570904      0.94861576     2122.0088     -445.53716      316.66604    
    147000   147000         482.48406     -432.4705       12834.967      13328.192      10094.679      3233.5135      3953.9136      7088.73       -7882.7832     -82.614304     -2042.8098      6994.3869     -4795.3096     -410.51437      78201.193      42.763291      42.763291      42.763291      0.93587012    -379.43197     -611.24315     -306.73639    
    148000   148000         490.5273       349.85276      13777.098      13384.901      10262.962      3121.9394      3763.4543      7199.3072     -7946.245      -81.293727     -2065.511       7038.7674     -4786.5399     -417.63727      76867.454      42.518784      42.518784      42.518784      0.95210854     1161.7592     -378.28829      266.08737    
    149000   149000         478.38311     -368.3087       12916.325      13334.348      10008.878      3325.4701      3916.4748      7143.4262     -7895.0406     -81.541537     -1976.5756      7013.7625     -4795.0357     -412.50524      77823.772      42.694385      42.694385      42.694385      0.94040879    -729.45095     -2547.1207      2171.6456    
    150000   150000         484.17705     -458.35308      12731.584      13249.066      10130.1        3118.9658      3774.1671      7124.2751     -7867.9781     -85.285225     -2044.054       7010.5418     -4792.7008     -414.68873      77414.001      42.619319      42.619319      42.619319      0.94538661    -1010.6345     -454.28636      89.861557    
    151000   151000         481.87806      553.26811      14077.881      13454.223      10082          3372.2225      3971.2607      7229.7746     -7937.7364     -87.400769     -2038.2198      7018.1859     -4783.6418     -415.34257      77292.134      42.596943      42.596943      42.596943      0.94687721     1835.3011     -941.03095      765.53416    
    152000   152000         480.12406      1387.7523      14521.201      12970.122      10045.302      2924.8198      3794.7283      7073.2758     -7990.3777     -78.131163     -2086.9353      7005.5684     -4793.3085     -418.88576      76638.351      42.476499      42.476499      42.476499      0.95495479     1825.8222      821.87256      1515.562     
    153000   153000         482.40761     -853.32385      12561.2        13524.603      10093.079      3431.5239      3965.2169      7274.0365     -7897.7264     -81.804667     -2048.7829      7010.9488     -4790.3642     -414.68996      77413.771      42.619277      42.619277      42.619277      0.94538941    -636.29837     -1583.5656     -340.10761    
    154000   154000         486.44924      249.15166      13615.668      13334.795      10177.64       3157.1553      3944.1732      7194.5454     -8030.4599     -82.296728     -2108.9694      7028.3332     -4788.1704     -415.30969      77298.254      42.598067      42.598067      42.598067      0.94680224     349.86689      330.00019      67.587888    
    155000   155000         472.65732     -1408.4471      11442.374      13023.21       9889.081       3134.1288      3814.5855      7141.1103     -7931.1755     -79.158254     -2071.0668      7042.2863     -4782.4528     -417.13006      76960.921      42.53601       42.53601       42.53601       0.95095224    -839.15961     -1107.1546     -2279.0271    
    156000   156000         483.90172      718.72077      14072.47       13256.042      10124.34       3131.7019      3776.4448      7134.4382     -7935.8031     -82.391891     -2026.9977      7051.0539     -4785.0423     -412.15407      77890.081      42.706507      42.706507      42.706507      0.93960822     1733.1081     -404.83301      827.8872     
    157000   157000         487.75739     -378.41756      12961.858      13393.311      10205.009      3188.3016      3850.3567      7158.6696     -7950.8812     -78.589659     -2030.7859      7024.3815     -4784.8495     -410.63468      78178.281      42.759115      42.759115      42.759115      0.9361444     -1382.0549     -1458.6693      1705.4715    
    158000   158000         479.95535     -19.257838      13184.089      13205.917      10041.773      3164.1447      3892.2073      7111.5317     -7936.5848     -81.249046     -2051.8097      7017.1568     -4787.1075     -413.05904      77719.431      42.675296      42.675296      42.675296      0.94167132    -1234.5159     -778.48857      1955.2309    
    159000   159000         483.78537      362.90933      13616.381      13207.505      10121.905      3085.5998      3848.8344      7095.1017     -7945.6382     -79.889078     -2098.1202      7041.3888     -4776.0777     -415.55113      77253.342      42.589815      42.589815      42.589815      0.94735267    -441.43781      1418.7471      111.41874    
    160000   160000         485.38885     -216.56162      13232.29       13473.756      10155.454      3318.302       3931.6162      7170.024      -7838.2768     -80.304342     -2105.1956      7023.5838     -4783.1452     -419.8981       76453.581      42.442336      42.442336      42.442336      0.95726268    -1221.9298     -59.566306      631.81122    
    161000   161000         484.06098      1000.6149      14344.074      13226.759      10127.672      3099.0877      3897.782       7165.8113     -8006.6237     -82.770373     -2106.2401      7016.9586     -4785.83       -419.28484      76565.404      42.463018      42.463018      42.463018      0.9558646     -475.13807      2494.8376      982.1453     
    162000   162000         484.91486     -118.98335      13162.398      13295.576      10145.537      3150.0392      3861.0422      7204.8809     -7942.3482     -78.226644     -2132.2887      7026.6736     -4789.6939     -418.2846       76748.495      42.496838      42.496838      42.496838      0.9535843     -1079.6993      2145.7686     -1423.0193    
    163000   163000         488.75386      623.96216      13937.355      13237.417      10225.858      3011.5598      3703.3785      7141.1374     -7880.4063     -82.819435     -2126.4751      7043.603      -4786.8583     -417.36561      76917.487      42.528007      42.528007      42.528007      0.95148922     476.07598     -108.15081      1503.9613    
    164000   164000         482.09307     -978.16817      12299.692      13406.824      10086.499      3320.325       3890.6116      7268.2668     -7962.0446     -84.696835     -2041.624       7033.2656     -4783.4536     -413.64882      77608.619      42.655004      42.655004      42.655004      0.94301587     262.85002     -2894.5447     -302.80977    
    165000   165000         481.86914     -243.7961       12802.269      13074.102      10081.813      2992.289       3732.3542      7192.4088     -7981.9409     -79.753075     -2098.0276      7010.9678     -4783.7203     -419.89528      76454.095      42.442431      42.442431      42.442431      0.95725624    -865.85269     -651.34919      785.8136     
    166000   166000         486.9251       629.83625      13983.042      13271.829      10187.596      3084.2331      3838.7381      7083.2986     -7951.9225     -78.243825     -2030.9829      7009.2715     -4785.9259     -414.61563      77427.649      42.621823      42.621823      42.621823      0.94521997    -232.1632      -472.16925      2593.8412    
    167000   167000         479.38043      255.95456      13419.84       13132.038      10029.744      3102.2944      3855.9871      7151.3352     -7956.1902     -83.628442     -2091.3498      7015.4449     -4789.3043     -416.37804      77099.921      42.561603      42.561603      42.561603      0.94923781    -812.74676      102.06304      1478.5474    
    168000   168000         479.08769     -392.75476      12733.582      13171.617      10023.619      3147.9982      3994.0927      7160.0017     -7981.963      -82.797935     -2161.7849      7011.5078     -4791.0582     -419.78799      76473.636      42.446047      42.446047      42.446047      0.95701164    -1337.4484      337.1951      -178.01101    
    169000   169000         488.26367     -62.950815      13262.772      13333.747      10215.602      3118.1454      3935.0777      7092.6501     -7951.6709     -83.50193      -2103.2414      7019.1092     -4790.2775     -415.25105      77309.169      42.600072      42.600072      42.600072      0.94666856    -341.59765      1650.8277     -1498.0825    
    170000   170000         490.04315      1125.4878      14637.573      13381.526      10252.833      3128.6935      3872.7034      7273.7767     -7936.2171     -86.702001     -2237.7474      7030.3613     -4787.4814     -419.51976      76522.531      42.455091      42.455091      42.455091      0.95640014     3276.504       1093.3342     -993.37482    
    171000   171000         489.88398     -84.701443      13292.646      13387.31       10249.502      3137.8074      3839.544       7287.254      -7983.8066     -84.52183      -2150.1029      7016.1096     -4786.6689     -418.91209      76633.533      42.475609      42.475609      42.475609      0.95501482    -411.29047      1184.1248     -1026.9386    
    172000   172000         484.40349      558.22453      13844.577      13210.955      10134.838      3076.1167      3728.6323      7247.7832     -7917.8967     -84.831195     -2122.2546      7012.1905     -4787.5068     -412.47326      77829.806      42.695488      42.695488      42.695488      0.94033589     1133.8609      1571.649      -1030.8363    
    173000   173000         481.47361     -1028.7709      12184.865      13340.885      10073.538      3267.3472      3921.7948      7118.6553     -7814.7347     -82.456221     -2079.2363      6994.8501     -4791.5259     -416.64946      77049.695      42.552359      42.552359      42.552359      0.94985658    -1326.5922     -814.39965     -945.32071    
    174000   174000         483.68203     -622.6976       12378.309      13074.841      10119.743      2955.0976      3883.6208      7014.5212     -7951.4562     -73.179568     -2148.3698      7022.8515     -4792.8903     -418.55592      76698.744      42.487654      42.487654      42.487654      0.95420284    -2149.2397      1609.6411     -1328.4942    
    175000   175000         484.62909      115.73957      13272.696      13143.358      10139.558      3003.7995      3821.113       6960.7653     -7838.7192     -83.478374     -2089.9207      7025.6415     -4791.602      -418.96068      76624.645      42.473967      42.473967      42.473967      0.95512559    -213.75401     -1539.0326      2100.0053    
    176000   176000         485.54936      56.337231      13350.948      13287.435      10158.812      3128.6229      3914.6015      7051.4138     -7882.0621     -81.014705     -2109.7378      7026.4362     -4791.014      -415.29134      77301.668      42.598694      42.598694      42.598694      0.94676041     776.77195      9.5325291     -617.29279    
    177000   177000         490.00348      25.903015      13322.593      13293.536      10252.003      3041.5331      3856.2652      7150.6505     -7976.9483     -82.371845     -2146.5519      7029.5777     -4789.0882     -417.35936      76918.638      42.528219      42.528219      42.528219      0.95147498     164.32004     -366.98633      280.37533    
    178000   178000         480.52321      915.28573      14174.442      13137.87       10053.654      3084.2165      3856.5009      7068.9817     -8035.0357     -85.16066      -1989.6892      7045.1969     -4776.5774     -413.4044       77654.505      42.663409      42.663409      42.663409      0.94245865     1226.2813      211.24718      1308.3287    
    179000   179000         475.10706      1651.8473      14895.9        13049.465      9940.3352      3109.1299      3854.5335      7026.9212     -7886.4058     -81.352981     -2045.4102      7029.5859     -4788.7417     -418.84508      76645.794      42.477874      42.477874      42.477874      0.95486205     1166.91        1399.5384      2389.0933    
    180000   180000         479.51566      827.36238      13963.502      13034.797      10032.573      3002.2241      3846.9943      7040.7303     -7924.3325     -83.367626     -2122.1873      7029.5506     -4785.1638     -417.09572      76967.258      42.537178      42.537178      42.537178      0.95087394     763.04001      742.02584      977.02131    
    181000   181000         485.58158      147.18313      13477.577      13310.025      10159.486      3150.5392      3872.3739      7130.6316     -7959.5186     -83.877476     -2066.9281      7040.3827     -4782.5249     -411.271        78057.323      42.737051      42.737051      42.737051      0.93759505     1527.5757     -1372.8094      286.78311    
    182000   182000         473.47187     -349.24852      12528.933      12919.882      9906.1232      3013.7588      3858.4649      7077.4667     -8010.5282     -75.680976     -2093.2249      7041.4086     -4784.1474     -418.24632      76755.52       42.498135      42.498135      42.498135      0.95349703    -1643.0232      1710.2573     -1114.9796    
[...]
   1955000   1955000        304.90393      346.0848       4480.507       4132.5863      6379.2932     -2246.7069      2332.4108      4931.2849     -8546.6572     -52.471107     -2991.3986      6907.4745     -4827.3503     -465.71469      68932.147      41.00221       41.00221       41.00221       1.061713      -2227.359       2387.676       877.93743    
   1956000   1956000        306.08086      721.87364      4973.5228      4246.2166      6403.9174     -2157.7009      2337.2865      4921.3218     -8456.0745     -49.6073       -2991.7435      6908.8223     -4827.7061     -464.68807      69084.437      41.032383      41.032383      41.032383      1.0593726      240.5597       821.73933      1103.3219    
   1957000   1957000        309.74708     -902.58848      3561.1387      4472.5065      6480.6232     -2008.1167      2431.695       4982.7831     -8444.0529     -54.168425     -3000.0192      6903.0316     -4827.3859     -463.6751       69235.363      41.062242      41.062242      41.062242      1.0570633      523.76862     -1482.7983     -1748.7358    
   1958000   1958000        300.88139      1633.4575      5842.1393      4189.9262      6295.1325     -2105.2063      2334.4747      5084.9586     -8530.0178     -53.435839     -3013.9369      6902.9512     -4830.2002     -462.8704       69355.728      41.086024      41.086024      41.086024      1.0552288      2609.8527      2375.2273     -84.707603    
   1959000   1959000        301.95972      1679.8314      5928.0497      4232.0254      6317.6936     -2085.6683      2341.6956      5000.7516     -8471.0988     -55.609167     -2967.4827      6898.1096     -4832.0343     -463.71511      69229.389      41.061061      41.061061      41.061061      1.0571545      2785.9345      1934.8118      318.74779    
   1960000   1960000        307.83013     -1215.1428      3155.189       4384.9479      6440.516      -2055.5681      2411.1158      5000.0382     -8518.1783     -55.253255     -2956.0113      6891.3528     -4828.6321     -462.62059      69393.179      41.093418      41.093418      41.093418      1.0546593     -1635.1626     -2274.7762      264.51039    
   1961000   1961000        309.20957      345.55804      4663.6167      4313.2334      6469.3771     -2156.1437      2327.7854      4929.7748     -8512.8669     -55.172258     -2925.499       6906.9804     -4827.1461     -461.7377       69525.867      41.119593      41.119593      41.119593      1.0526465      2703.6999     -875.4094      -791.6164     
   1962000   1962000        303.40117     -1195.0792      3079.1896      4289.8053      6347.8521     -2058.0468      2425.7522      4907.5742     -8435.3558     -54.528185     -2960.0906      6886.6552     -4828.0538     -462.17666      69459.834      41.106571      41.106571      41.106571      1.0536472     -391.85455     -1543.8863     -1649.4967    
   1963000   1963000        305.71905      93.195683      4457.6229      4363.4148      6396.3475     -2032.9327      2427.7409      4936.3398     -8490.2433     -56.802212     -2927.29        6900.8329     -4823.5108     -463.15392      69313.272      41.077638      41.077638      41.077638      1.0558751      190.43132      1537.6351     -1448.4794    
   1964000   1964000        303.5877       691.22946      4956.4468      4261.0537      6351.7548     -2090.7011      2415.3669      4860.651      -8448.5975     -54.288135     -2940.8054      6904.4982     -4827.5262     -465.38194      68981.434      41.01198       41.01198       41.01198       1.0609544      1708.3724      1194.5157     -829.19978    
   1965000   1965000        301.10129     -653.91485      3576.0309      4235.2287      6299.7332     -2064.5044      2355.9698      5097.2982     -8492.6474     -56.151352     -3037.0398      6897.6247     -4829.5586     -464.43296      69122.385      41.039895      41.039895      41.039895      1.058791      -1018.5545      990.46604     -1933.6561    
   1966000   1966000        300.45576      1314.3437      5487.2651      4147.9721      6286.2273     -2138.2552      2315.3443      4992.1247     -8549.5794     -55.145372     -2901.1084      6890.992      -4830.8831     -459.46347      69870.002      41.187325      41.187325      41.187325      1.0474618      1792.8442      948.9157       1201.2713    
   1967000   1967000        298.25619     -224.5378       3818.4329      4044.939       6240.2073     -2195.2683      2353.645       4891.0537     -8475.4183     -54.904814     -2971.4402      6893.7417     -4831.9453     -464.11674      69169.48       41.049213      41.049213      41.049213      1.0580701      1290.7426     -2121.5996      157.24367    
   1968000   1968000        306.69069      652.57608      4914.1041      4255.2298      6416.6763     -2161.4465      2337.7687      5020.9211     -8570.1932     -52.975002     -2949.7622      6880.4291     -4827.6349     -463.70972      69230.193      41.06122       41.06122       41.06122       1.0571422      984.44703      208.80066      764.48056    
   1969000   1969000        306.28659     -882.33299      3386.4502      4279.1041      6408.2218     -2129.1176      2361.3524      4956.9163     -8467.3517     -51.73784      -2997.1727      6891.6316     -4822.7556     -462.77194      69370.485      41.088937      41.088937      41.088937      1.0550043     -351.1852      -934.93719     -1360.8766    
   1970000   1970000        304.91063     -1205.3333      3032.5307      4252.8534      6379.4334     -2126.58        2406.4825      4899.3432     -8499.4579     -52.083824     -2943.2449      6890.3586     -4827.9777     -462.43437      69421.124      41.098933      41.098933      41.098933      1.0542347     -1902.8943      1499.0632     -3212.1689    
   1971000   1971000        306.38353     -191.77386      4152.3841      4346.3185      6410.2498     -2063.9313      2427.0309      4997.1872     -8516.6974     -55.664122     -2976.6698      6888.8189     -4827.9369     -462.9692       69340.928      41.083101      41.083101      41.083101      1.055454       90.240631     -319.76457     -345.79763    
   1972000   1972000        301.80119     -337.63301      3847.0534      4188.1181      6314.3768     -2126.2587      2359.0285      4948.1748     -8469.6542     -53.749264     -2962.7269      6882.3937     -4829.7253     -463.47444      69265.338      41.068167      41.068167      41.068167      1.0566058     -1088.4356      803.03787     -727.50131    
   1973000   1973000        299.68224      869.98731      4921.4029      4047.8112      6270.0434     -2222.2322      2361.784       4871.388      -8486.9269     -53.462007     -2993.7569      6908.6364     -4829.8948     -466.25346      68852.494      40.986411      40.986411      40.986411      1.0629413      517.98707      2042.8202      49.154653    
   1974000   1974000        302.32784     -767.11971      3493.3841      4268.6536      6325.3955     -2056.7419      2453.2983      4946.1556     -8516.6503     -55.464031     -2968.0806      6911.0729     -4827.0737     -463.26351      69296.875      41.074399      41.074399      41.074399      1.056125      -2088.7969     -967.96217      755.39995    
   1975000   1975000        301.63449     -1901.4113      2295.9131      4214.909       6310.8889     -2095.98        2438.6628      4923.3616     -8500.8204     -52.518661     -2985.9228      6909.4146     -4828.1571     -463.89498      69202.545      41.055753      41.055753      41.055753      1.0575646     -368.08329     -3048.6025     -2287.5482    
   1976000   1976000        300.55466      957.40387      5156.4319      4194.8566      6288.2964     -2093.4398      2413.5378      4939.2193     -8496.7769     -52.815146     -2969.385       6903.0587     -4830.2786     -466.15411      68867.169      40.989323      40.989323      40.989323      1.0627148      1139.6959      1018.7364      713.77934    
   1977000   1977000        305.03131     -366.34768      3911.6668      4283.4729      6381.9584     -2098.4855      2401.8819      4961.0927     -8526.0064     -55.000326     -2947.0434      6897.4461     -4830.856      -461.31177      69590.059      41.132244      41.132244      41.132244      1.0516755      1901.3407     -2061.5024     -938.88134    
   1978000   1978000        300.75767      53.830725      4143.2321      4089.3092      6292.5438     -2203.2347      2351.5478      4912.8081     -8477.4832     -54.05893      -3004.1999      6894.4335     -4826.2821     -467.38477      68685.836      40.953315      40.953315      40.953315      1.0655204     -600.81933      454.33091      307.9806     
   1979000   1979000        296.05897     -1107.3663      2802.2318      3921.3693      6194.2362     -2272.8669      2351.9673      4900.2052     -8501.9245     -54.520055     -3050.9704      6910.0792     -4827.7037     -463.26071      69297.294      41.074482      41.074482      41.074482      1.0561186     -508.77746     -882.62397     -1930.6974    
   1980000   1980000        301.1915      -1480.4584      2707.9887      4196.3571      6301.6207     -2105.2636      2372.3252      5027.3256     -8512.8972     -52.808342     -3018.2843      6906.1291     -4827.0536     -465.69697      68934.771      41.002731      41.002731      41.002731      1.0616726     -1740.8382     -823.55088     -1876.9861    
   1981000   1981000        299.59804      791.58498      4848.6794      4047.6671      6268.2817     -2220.6146      2325.6999      4923.0143     -8485.9038     -57.616058     -2997.6757      6898.8475     -4826.9808     -462.67495      69385.027      41.091808      41.091808      41.091808      1.0547832     -648.84081      635.79847      2387.7973    
   1982000   1982000        302.12219      1550.4681      5696.2931      4141.3116      6321.0929     -2179.7813      2305.6715      4896.9428     -8495.1164     -50.832764     -2911.21        6902.8399     -4828.0764     -466.82624      68768.015      40.969641      40.969641      40.969641      1.0642471      475.48233      2203.328       1972.5941    
   1983000   1983000        303.81459     -798.03713      3333.606       4140.9757      6356.5018     -2215.5261      2299.7908      4870.4925     -8444.9398     -54.34934      -2941.7429      6888.9202     -4833.6975     -462.77328      69370.284      41.088898      41.088898      41.088898      1.0550074     -1636.7215      222.38413     -979.774      
   1984000   1984000        304.75277     -651.87828      3564.2441      4223.4583      6376.1306     -2152.6723      2388.366       4909.497      -8477.5075     -56.18307      -2983.9703      6895.2852     -4828.1596     -462.97504      69340.053      41.082928      41.082928      41.082928      1.0554673     -722.41482     -251.54143     -981.67859    
   1985000   1985000        295.45803      403.82578      4424.0708      4015.1422      6181.6633     -2166.5211      2302.9664      4951.0253     -8461.3307     -55.518529     -2976.6995      6900.525      -4827.4892     -462.34294      69434.853      41.101642      41.101642      41.101642      1.0540263     -87.660942      366.26453      932.87377    
   1986000   1986000        302.5723       841.2242       5070.0922      4220.5412      6330.5102     -2109.969       2378.8115      5025.3208     -8515.7909     -55.289981     -2994.998       6883.0834     -4831.1058     -463.59631      69247.13       41.064568      41.064568      41.064568      1.0568837      2064.6444      124.4781       334.5501     
   1987000   1987000        297.26692      672.47466      4616.2261      3938.7059      6219.5094     -2280.8035      2330.8985      4899.3246     -8564.192      -49.337446     -2962.6032      6896.3644     -4831.2584     -464.69853      69082.882      41.032075      41.032075      41.032075      1.0593964      1187.9761      424.36238      405.08548    
   1988000   1988000        308.22075      201.88185      4406.2883      4202.9983      6448.6887     -2245.6904      2320.2482      4954.0645     -8509.8605     -56.149002     -3002.2236      6883.3154     -4835.0855     -464.94199      69046.707      41.024912      41.024912      41.024912      1.0599515     -20.779193      1043.121      -416.69626    
   1989000   1989000        303.39131      119.36319      4307.3848      4186.1962      6347.6458     -2161.4496      2263.9453      4993.2051     -8453.2353     -53.477839     -2962.8204      6883.7866     -4832.8531     -461.13292      69617.05       41.137561      41.137561      41.137561      1.0512678     -606.88715      1552.6131     -587.6364     
   1990000   1990000        300.25156      1228.8334      5283.5213      4050.3167      6281.9549     -2231.6381      2294.8882      4984.5485     -8546.227      -57.243649     -2969.1382      6891.2974     -4829.7633     -466.52564      68812.325      40.978439      40.978439      40.978439      1.0635618      1495.3617      1418.1076      773.03088    
   1991000   1991000        296.08121      739.43477      4713.3968      3969.9572      6194.7017     -2224.7445      2282.6572      4943.0297     -8471.1807     -51.14168      -2983.0343      6884.2809     -4829.3556     -465.66306      68939.79       41.003726      41.003726      41.003726      1.0615953      906.26101      352.27252      959.77079    
   1992000   1992000        300.95699      196.99799      4363.7616      4164.1954      6296.7141     -2132.5187      2446.2821      4913.6429     -8523.6967     -53.834159     -2982.7823      6895.9269     -4828.0574     -462.16002      69462.334      41.107064      41.107064      41.107064      1.0536093      59.172283      864.82664     -333.00496    
   1993000   1993000        294.32757     -844.39508      2974.9278      3824.5674      6158.0114     -2333.444       2331.2479      4786.2237     -8509.4097     -50.433454     -2972.3987      6905.7574     -4824.4312     -465.29523      68994.289      41.014528      41.014528      41.014528      1.0607568     -711.00309      151.69336     -1973.8755    
   1994000   1994000        301.69254     -1878.1768      2233.5446      4124.2174      6312.1035     -2187.8861      2385.8868      4915.4488     -8503.2363     -53.811626     -3003.0527      6897.1311     -4826.2521     -465.09078      69024.619      41.020537      41.020537      41.020537      1.0602907     -1374.554      -2718.827      -1541.1494    
   1995000   1995000        298.62995      656.87458      4678.8996      4015.0411      6248.0271     -2232.986       2391.3294      4914.2834     -8545.5813     -55.518206     -2987.0631      6884.6238     -4835.06       -463.25971      69297.443      41.074511      41.074511      41.074511      1.0561163      836.1625      -8.3816237      1142.8428    
   1996000   1996000        302.00643     -69.533236      4090.7375      4161.2087      6318.6708     -2157.4621      2389.1473      4924.0656     -8494.0785     -51.862346     -2977.5589      6884.6094     -4831.7847     -461.95367      69493.362      41.113183      41.113183      41.113183      1.0531389      745.7166      -531.76107     -422.55524    
   1997000   1997000        299.33878     -1877.6005      2244.1142      4137.42        6262.8574     -2125.4374      2340.7871      4976.8488     -8448.868      -55.216064     -3005.9355      6891.8063     -4824.86       -464.30148      69141.959      41.043768      41.043768      41.043768      1.0584913     -2375.3583     -539.36115     -2718.0819    
   1998000   1998000        296.62226     -987.06613      3029.662       4027.0468      6206.0215     -2178.9747      2381.9662      4883.7143     -8530.192      -52.473794     -2915.3549      6883.867      -4830.5015     -463.34142      69285.223      41.072097      41.072097      41.072097      1.0563026     -1151.2549     -460.58533     -1349.3582    
   1999000   1999000        303.40474      944.9088       4966.4747      4018.0889      6347.9267     -2329.8378      2259.7143      4847.524      -8497.4748     -50.524335     -2948.4054      6885.7057     -4826.3774     -466.46869      68820.726      40.980106      40.980106      40.980106      1.063432       527.3144       1246.6605      1060.7515    
   2000000   2000000        301.88851      447.70215      4640.0331      4188.0153      6316.2037     -2128.1884      2300.3335      5039.2869     -8522.311      -54.33105      -2953.5944      6894.3933     -4831.9657     -463.71509      69229.392      41.061062      41.061062      41.061062      1.0571544      875.57259      212.06228      255.47158    
Loop time of 4073.01 on 1 procs for 2000000 steps with 7020 atoms

Performance: 42.426 ns/day, 0.566 hours/ns, 491.038 timesteps/s, 3.447 Matom-step/s
99.9% CPU use with 1 MPI tasks x 1 OpenMP threads

MPI task timing breakdown:
Section |  min time  |  avg time  |  max time  |%varavg| %total
---------------------------------------------------------------
Pair    | 491.96     | 491.96     | 491.96     |   0.0 | 12.08
Bond    | 462.11     | 462.11     | 462.11     |   0.0 | 11.35
Kspace  | 1948.7     | 1948.7     | 1948.7     |   0.0 | 47.84
Neigh   | 349.27     | 349.27     | 349.27     |   0.0 |  8.58
Comm    | 71.097     | 71.097     | 71.097     |   0.0 |  1.75
Output  | 24.304     | 24.304     | 24.304     |   0.0 |  0.60
Modify  | 642.67     | 642.67     | 642.67     |   0.0 | 15.78
Other   |            | 82.9       |            |       |  2.04

Nlocal:           7020 ave        7020 max        7020 min
Histogram: 1 0 0 0 0 0 0 0 0 0
Nghost:          19480 ave       19480 max       19480 min
Histogram: 1 0 0 0 0 0 0 0 0 0
Neighs:              0 ave           0 max           0 min
Histogram: 1 0 0 0 0 0 0 0 0 0
FullNghs:  4.52811e+06 ave 4.52811e+06 max 4.52811e+06 min
Histogram: 1 0 0 0 0 0 0 0 0 0

Total # of neighbors = 4528110
Ave neighs/atom = 645.02991
Ave special neighs/atom = 5.7008547
Neighbor list builds = 73229
Dangerous builds = 0

# --- Cleanup ---
unfix npt_fix

undump dump_npt

# --- Write Output ---
write_dump all custom npt_cool_last.dump id type mol x y z xu yu zu vx vy vz modify sort id
write_data /home/alexzhao/PolyJarvis/data/PEG4/lammps/equil/npt_cool/npt_cool_out.data
System init for write_data ...
PPPM Kokkos initialization ...
  using 12-bit tables for long-range coulomb
  G vector (1/distance) = 0.30301967
  grid = 30 30 30
  stencil order = 5
  estimated absolute RMS force accuracy = 0.00030583453
  estimated relative force accuracy = 9.210116e-07
  using double precision cuFFT
  3d grid and FFT values/proc = 50653 27000
Generated 10 of 10 mixed pair_coeff terms from sixthpower/sixthpower mixing rule

print "STAGE COMPLETE: NPT T=500.0->300.0K P=1.0->1.0atm steps=2000000"
STAGE COMPLETE: NPT T=500.0->300.0K P=1.0->1.0atm steps=2000000
quit
     |       |  2.04

Nlocal:           7020 ave        7020 max        7020 min
Histogram: 1 0 0 0 0 0 0 0 0 0
Nghost:          19480 ave       19480 max       19480 min
Histogram: 1 0 0 0 0 0 0 0 0 0
Neighs:              0 ave           0 max           0 min
Histogram: 1 0 0 0 0 0 0 0 0 0
FullNghs:  4.52811e+06 ave 4.52811e+06 max 4.52811e+06 min
Histogram: 1 0 0 0 0 0 0 0 0 0

Total # of neighbors = 4528110
Ave neighs/atom = 645.02991
Ave special neighs/atom = 5.7008547
Neighbor list builds = 73229
Dangerous builds = 0
System init for write_data ...
PPPM Kokkos initialization ...
  using 12-bit tables for long-range coulomb
  G vector (1/distance) = 0.30301967
  grid = 30 30 30
  stencil order = 5
  estimated absolute RMS force accuracy = 0.00030583453
  estimated relative force accuracy = 9.210116e-07
  using double precision cuFFT
  3d grid and FFT values/proc = 50653 27000
Generated 10 of 10 mixed pair_coeff terms from sixthpower/sixthpower mixing rule
STAGE COMPLETE: NPT T=500.0->300.0K P=1.0->1.0atm steps=2000000
