units real
atom_style full
boundary p p p

# --- Force Field Styles (identical to npt_production.in) ---
pair_style lj/class2/coul/long 9.5 9.5
kspace_style pppm 1e-6
dielectric 1.000000
bond_style class2
angle_style class2
dihedral_style class2
improper_style class2
special_bonds lj/coul 0 0 1
pair_modify mix sixthpower tail yes
neighbor 2.0 bin
neigh_modify delay 0 every 1 check yes
neigh_modify one 4000
# KOKKOS: package loaded via -pk kokkos on the command line

read_data /home/alexzhao/PolyJarvis/data/PEG3/lammps/equil/npt_production/npt_production_out.data
Reading data file ...
  orthogonal box = (4.1142561 4.1142561 4.1142561) to (45.206877 45.206877 45.206877)
  1 by 1 by 1 MPI processor grid
  reading atoms ...
  7020 atoms
  reading velocities ...
  7020 velocities
  scanning bonds ...
  4 = max bonds/atom
  scanning angles ...
  10 = max angles/atom
  scanning dihedrals ...
  16 = max dihedrals/atom
  scanning impropers ...
  7 = max impropers/atom
  orthogonal box = (4.1142561 4.1142561 4.1142561) to (45.206877 45.206877 45.206877)
  1 by 1 by 1 MPI processor grid
  reading bonds ...
  7010 bonds
  reading angles ...
  13000 angles
  reading dihedrals ...
  14970 dihedrals
  reading impropers ...
  8000 impropers
Finding 1-2 1-3 1-4 neighbors ...
  special bond factors lj:    0        0        1       
  special bond factors coul:  0        0        1       
     4 = max # of 1-2 neighbors
     6 = max # of 1-3 neighbors
     8 = max # of special neighbors
  special bonds CPU = 0.003 seconds
  read_data CPU = 0.183 seconds
include /home/alexzhao/PolyJarvis/data/PEG3/lammps/equil/emc_build.params
# LAMMPS parameters created by EMC v9.4.4, build Jul 31 2025 20:33:44

# Variables

variable	seed		index	830011
variable	ntotal		index	7020
variable	fshape		index	1
variable	output		index	emc_build
variable	field		index	pcff/pcff
variable	location1	index	~/emc/field/
variable	nav		index	0.6022141179
variable	temperature	index	300
variable	radius		index	5
variable	nrelax		index	100
variable	weight_nonbond	index	0.0001
variable	weight_bond	index	0.0001
variable	weight_focus	index	1
variable	cutoff		index	9.5
variable	charge_cutoff	index	9.5
variable	kappa		index	4
variable	density1	index	0.61
variable	lprevious	index	0
variable	lphase		index	49.3211329242
variable	f_poly		index	10
variable	chem_repeat	index	*CCO*
variable	chem_cap	index	*[H]
variable	lg_repeat	index	7
variable	lg_cap		index	1
variable	norm_poly	index	100
variable	l_poly		index	702
variable	mg_repeat	index	16.04303
variable	mg_cap		index	0
variable	m_poly		index	1604.303
variable	n_poly		index	10
variable	mtotal		index	44073.7394
variable	nphase1		index	7020
variable	mphase1		index	44073.7394
variable	vphase1		index	119977.313144
variable	lbox		index	49.3211329242
variable	lphase1		index	49.3211329242
variable	lxx		index	49.3211329242
variable	lyy		index	49.3211329242
variable	lzz		index	49.3211329242
variable	lzy		index	0
variable	lzx		index	0
variable	lyx		index	0
variable	vtotal		index	119977.313144
variable	nl_poly		index	10

# Types

variable	type_c		index	1
variable	type_hc		index	2
variable	type_ho		index	3
variable	type_oc		index	4
variable	type_oh		index	5

variable	type_bond_c_c	index	1
variable	type_bond_c_hc	index	2
variable	type_bond_c_oc	index	3
variable	type_bond_c_oh	index	4
variable	type_bond_ho_oh	index	5

variable	type_angle_c_c_hc index	1
variable	type_angle_c_c_oc index	2
variable	type_angle_c_c_oh index	3
variable	type_angle_c_oc_c index	4
variable	type_angle_c_oh_ho index	5
variable	type_angle_hc_c_hc index	6
variable	type_angle_hc_c_oc index	7
variable	type_angle_hc_c_oh index	8

# Clusters

variable	n0_poly		index	1
variable	n1_poly		index	10
variable	nl_poly		index	10

# Flags

variable	flag_charged	index	1

# Masses

mass		1    12.01115  # c
mass		2     1.00797  # hc
mass		3     1.00797  # ho
mass		4    15.99940  # oc
mass		5    15.99940  # oh

# Potentials

pair_modify	mix sixthpower tail yes
special_bonds	lj/coul 0 0 1

# Pair Coeffs

pair_coeff	 1  1    0.05400    4.01000  # c,c
pair_coeff	 2  2    0.02000    2.99500  # hc,hc
pair_coeff	 3  3    0.01300    1.09800  # ho,ho
pair_coeff	 4  4    0.24000    3.53500  # oc,oc
pair_coeff	 5  5    0.24000    3.53500  # oh,oh

# Bond Coeffs

bond_coeff	1    1.53000  299.67000 -501.77000  679.81000  # c,c
bond_coeff	2    1.10100  345.00000 -691.89000  844.60000  # c,hc
bond_coeff	3    1.42000  400.39540 -835.19510 1313.01420  # c,oc
bond_coeff	4    1.42000  400.39540 -835.19510 1313.01420  # c,oh
bond_coeff	5    0.96500  532.50620 -1282.90500 2004.76580  # ho,oh

# Angle Coeffs

angle_coeff	1  110.77000   41.45300  -10.60400    5.12900  # c,c,hc
angle_coeff	2  111.27000   54.53810   -8.36420  -13.08380  # c,c,oc
angle_coeff	3  111.27000   54.53810   -8.36420  -13.08380  # c,c,oh
angle_coeff	4  104.50000   35.74540  -10.00670   -6.27290  # c,oc,c
angle_coeff	5  105.80000   52.70610  -12.10900   -9.86810  # c,oh,ho
angle_coeff	6  107.66000   39.64100  -12.92100   -2.43180  # hc,c,hc
angle_coeff	7  108.72800   58.54460  -10.80880  -12.40060  # hc,c,oc
angle_coeff	8  108.72800   58.54460  -10.80880  -12.40060  # hc,c,oh

# BondBond Coeffs

angle_coeff	1 bb    3.38720    1.53000    1.10100  # c,c,hc
angle_coeff	2 bb   11.43180    1.53000    1.42000  # c,c,oc
angle_coeff	3 bb   11.43180    1.53000    1.42000  # c,c,oh
angle_coeff	4 bb   -7.11310    1.42000    1.42000  # c,oc,c
angle_coeff	5 bb   -9.68790    1.42000    0.96500  # c,oh,ho
angle_coeff	6 bb    5.33160    1.10100    1.10100  # hc,c,hc
angle_coeff	7 bb   23.19790    1.10100    1.42000  # hc,c,oc
angle_coeff	8 bb   23.19790    1.10100    1.42000  # hc,c,oh

# BondAngle Coeffs

angle_coeff	1 ba   20.75400   11.42100    1.53000    1.10100  # c,c,hc
angle_coeff	2 ba    2.68680   20.40330    1.53000    1.42000  # c,c,oc
angle_coeff	3 ba    2.68680   20.40330    1.53000    1.42000  # c,c,oh
angle_coeff	4 ba   -2.81120   -2.81120    1.42000    1.42000  # c,oc,c
angle_coeff	5 ba   28.58000   18.92770    1.42000    0.96500  # c,oh,ho
angle_coeff	6 ba   18.10300   18.10300    1.10100    1.10100  # hc,c,hc
angle_coeff	7 ba    4.61890   55.32700    1.10100    1.42000  # hc,c,oc
angle_coeff	8 ba    4.61890   55.32700    1.10100    1.42000  # hc,c,oh

# Dihedral Coeffs

dihedral_coeff	1   -0.52030    0.00000   -0.30280    0.00000   -0.34500    0.00000  # c,c,oc,c
dihedral_coeff	2   -0.67320    0.00000   -0.47780    0.00000   -0.16700    0.00000  # c,c,oh,ho
dihedral_coeff	3    0.53020    0.00000    0.00000    0.00000   -0.39660    0.00000  # c,oc,c,hc
dihedral_coeff	4   -0.14320    0.00000    0.06170    0.00000   -0.10830    0.00000  # hc,c,c,hc
dihedral_coeff	5   -0.14350    0.00000    0.25300    0.00000   -0.09050    0.00000  # hc,c,c,oc
dihedral_coeff	6   -0.14350    0.00000    0.25300    0.00000   -0.09050    0.00000  # hc,c,c,oh
dihedral_coeff	7    0.18630    0.00000   -0.43380    0.00000   -0.21210    0.00000  # hc,c,oh,ho
dihedral_coeff	8   -0.18200    0.00000   -0.10840    0.00000   -0.70470    0.00000  # oc,c,c,oc
dihedral_coeff	9   -0.18200    0.00000   -0.10840    0.00000   -0.70470    0.00000  # oc,c,c,oh

# MiddleBondTorsion Coeffs

dihedral_coeff	1 mbt   -5.92880   -2.70070   -0.31750    1.42000  # c,c,oc,c
dihedral_coeff	2 mbt    1.24720    0.00000    0.74850    1.42000  # c,c,oh,ho
dihedral_coeff	3 mbt   -6.80070   -4.65460   -1.41010    1.42000  # c,oc,c,hc
dihedral_coeff	4 mbt  -14.26100   -0.53220   -0.48640    1.53000  # hc,c,c,hc
dihedral_coeff	5 mbt  -16.79750   -1.22960   -0.27500    1.53000  # hc,c,c,oc
dihedral_coeff	6 mbt  -16.79750   -1.22960   -0.27500    1.53000  # hc,c,c,oh
dihedral_coeff	7 mbt    0.00000    0.92410   -0.58890    1.42000  # hc,c,oh,ho
dihedral_coeff	8 mbt  -17.25850   -3.61570   -0.83640    1.53000  # oc,c,c,oc
dihedral_coeff	9 mbt  -17.25850   -3.61570   -0.83640    1.53000  # oc,c,c,oh

# EndBondTorsion Coeffs

dihedral_coeff	1 ebt   -0.24560    1.05170   -0.77950    0.47410    1.26350    0.55760    1.53000    1.42000  # c,c,oc,c
dihedral_coeff	2 ebt   -0.58000    0.90040    0.00000    0.00000    0.53430    0.90250    1.53000    0.96500  # c,c,oh,ho
dihedral_coeff	3 ebt   -0.16200    0.15640   -1.14080   -0.60540    1.33390    0.96480    1.42000    1.10100  # c,oc,c,hc
dihedral_coeff	4 ebt    0.21300    0.31200    0.07770    0.21300    0.31200    0.07770    1.10100    1.10100  # hc,c,c,hc
dihedral_coeff	5 ebt    0.96810    0.95510    0.04360    0.59030    0.66690    0.85840    1.10100    1.42000  # hc,c,c,oc
dihedral_coeff	6 ebt    0.96810    0.95510    0.04360    0.59030    0.66690    0.85840    1.10100    1.42000  # hc,c,c,oh
dihedral_coeff	7 ebt   -1.75540    1.31450    0.22630    0.24930    0.68030    0.00000    1.10100    0.96500  # hc,c,oh,ho
dihedral_coeff	8 ebt    1.01650    0.75530   -0.46090    1.01650    0.75530   -0.46090    1.42000    1.42000  # oc,c,c,oc
dihedral_coeff	9 ebt    1.01650    0.75530   -0.46090    1.01650    0.75530   -0.46090    1.42000    1.42000  # oc,c,c,oh

# AngleTorsion Coeffs

dihedral_coeff	1 at   -2.74660    1.48770   -0.89550    0.56760    0.94500    0.07030  111.27000  104.50000  # c,c,oc,c
dihedral_coeff	2 at   -3.59030    2.52250    0.48880    0.87260   -0.35770    0.38880  111.27000  105.80000  # c,c,oh,ho
dihedral_coeff	3 at   -0.77770    0.43400   -0.66530   -1.82340    1.63930    0.51440  104.50000  108.72800  # c,oc,c,hc
dihedral_coeff	4 at   -0.80850    0.55690   -0.24660   -0.80850    0.55690   -0.24660  110.77000  110.77000  # hc,c,c,hc
dihedral_coeff	5 at    2.36680    2.49200   -1.01220   -0.18920    0.49180    0.72730  110.77000  111.27000  # hc,c,c,oc
dihedral_coeff	6 at    2.36680    2.49200   -1.01220   -0.18920    0.49180    0.72730  110.77000  111.27000  # hc,c,c,oh
dihedral_coeff	7 at   -3.40600    1.63960    0.07370    0.00000   -0.28100   -0.59440  108.72800  105.80000  # hc,c,oh,ho
dihedral_coeff	8 at    0.55110    0.97370   -0.66730    0.55110    0.97370   -0.66730  111.27000  111.27000  # oc,c,c,oc
dihedral_coeff	9 at    0.55110    0.97370   -0.66730    0.55110    0.97370   -0.66730  111.27000  111.27000  # oc,c,c,oh

# AngleAngleTorsion Coeffs

dihedral_coeff	1 aat  -19.00590  111.27000  104.50000  # c,c,oc,c
dihedral_coeff	2 aat  -12.10380  111.27000  105.80000  # c,c,oh,ho
dihedral_coeff	3 aat  -16.44380  104.50000  108.72800  # c,oc,c,hc
dihedral_coeff	4 aat  -12.56400  110.77000  110.77000  # hc,c,c,hc
dihedral_coeff	5 aat  -20.20060  110.77000  111.27000  # hc,c,c,oc
dihedral_coeff	6 aat  -20.20060  110.77000  111.27000  # hc,c,c,oh
dihedral_coeff	7 aat  -10.50930  108.72800  105.80000  # hc,c,oh,ho
dihedral_coeff	8 aat  -14.04840  111.27000  111.27000  # oc,c,c,oc
dihedral_coeff	9 aat  -14.04840  111.27000  111.27000  # oc,c,c,oh

# BondBond13 Coeffs

dihedral_coeff	1 bb13    0.00000    1.53000    1.42000  # c,c,oc,c
dihedral_coeff	2 bb13    0.00000    1.53000    0.96500  # c,c,oh,ho
dihedral_coeff	3 bb13    0.00000    1.42000    1.10100  # c,oc,c,hc
dihedral_coeff	4 bb13    0.00000    1.10100    1.10100  # hc,c,c,hc
dihedral_coeff	5 bb13    0.00000    1.10100    1.42000  # hc,c,c,oc
dihedral_coeff	6 bb13    0.00000    1.10100    1.42000  # hc,c,c,oh
dihedral_coeff	7 bb13    0.00000    1.10100    0.96500  # hc,c,oh,ho
dihedral_coeff	8 bb13    0.00000    1.42000    1.42000  # oc,c,c,oc
dihedral_coeff	9 bb13    0.00000    1.42000    1.42000  # oc,c,c,oh

# Improper Coeffs

improper_coeff	1    0.00000    0.00000  # c,c,hc,hc
improper_coeff	2    0.00000    0.00000  # c,c,hc,oc
improper_coeff	3    0.00000    0.00000  # c,c,oc,hc
improper_coeff	4    0.00000    0.00000  # c,c,oh,hc
improper_coeff	5    0.00000    0.00000  # c,hc,hc,hc
improper_coeff	6    0.00000    0.00000  # c,hc,hc,oc
improper_coeff	7    0.00000    0.00000  # c,hc,hc,oh

# AngleAngle Coeffs

improper_coeff	1 aa    0.27380   -0.48250    0.27380  110.77000  110.77000  107.66000  # c,c,hc,hc
improper_coeff	2 aa    3.91770    2.59260    0.16890  110.77000  111.27000  108.72800  # c,c,hc,oc
improper_coeff	3 aa    0.16890    2.59260    3.91770  111.27000  110.77000  108.72800  # c,c,oc,hc
improper_coeff	4 aa    0.16890    2.59260    3.91770  111.27000  110.77000  108.72800  # c,c,oh,hc
improper_coeff	5 aa   -0.31570   -0.31570   -0.31570  107.66000  107.66000  107.66000  # c,hc,hc,hc
improper_coeff	6 aa    2.42590    2.42590    2.12830  107.66000  108.72800  108.72800  # c,hc,hc,oc
improper_coeff	7 aa    2.42590    2.42590    2.12830  107.66000  108.72800  108.72800  # c,hc,hc,oh


# --- Thermo Output ---
thermo_style custom step time temp press enthalpy etotal ke pe ebond eangle edihed eimp evdwl ecoul elong etail vol lx ly lz density pxx pyy pzz
thermo_modify flush yes
thermo 1000

# --- Trajectory ---
dump dump_npt all custom 2000 npt_ext.dump id type mol x y z ix iy iz vx vy vz

# --- NPT Thermostat + Barostat (Nose-Hoover), continue at 300 K / 1 atm ---
timestep 1.0
fix npt_fix all npt temp 300.0 300.0 100.0 iso 1.0 1.0 1000.0

run 2000000
PPPM Kokkos initialization ...
  using 12-bit tables for long-range coulomb
  G vector (1/distance) = 0.30295659
  grid = 30 30 30
  stencil order = 5
  estimated absolute RMS force accuracy = 0.00030654209
  estimated relative force accuracy = 9.2314239e-07
  using double precision cuFFT
  3d grid and FFT values/proc = 50653 27000
Generated 10 of 10 mixed pair_coeff terms from sixthpower/sixthpower mixing rule
Neighbor list info ...
  update: every = 1 steps, delay = 0 steps, check = yes
  max neighbors/atom: 4000, page size: 100000
  master list distance cutoff = 11.5
  ghost atom cutoff = 11.5
  binsize = 11.5, bins = 4 4 4
  1 neighbor lists, perpetual/occasional/extra = 1 0 0
  (1) pair lj/class2/coul/long/kk, perpetual
      attributes: full, newton off, kokkos_device
      pair build: full/bin/kk/device
      stencil: full/bin/3d
      bin: kk/device
Per MPI rank memory allocation (min/avg/max) = 32.47 | 32.47 | 32.47 Mbytes
   Step          Time           Temp          Press         Enthalpy        TotEng         KinEng         PotEng         E_bond        E_angle        E_dihed        E_impro         E_vdwl         E_coul         E_long         E_tail         Volume           Lx             Ly             Lz          Density          Pxx            Pyy            Pzz      
         0   0              300.11734     -576.69224      3326.8202      3910.4151      6279.1467     -2368.7315      2343.0688      4894.407      -8562.9082     -50.294211     -3062.7026      6954.6291     -4884.9315     -462.6475       69389.142      41.092621      41.092621      41.092621      1.0547206     -482.77581     -1118.2358     -129.06516    
      1000   1000           299.46112      693.94841      4771.3803      4074.5975      6265.417      -2190.8196      2372.7974      4997.5084     -8550.3269     -54.350361     -3016.8385      6947.4632     -4887.0727     -466.28067      68848.477      40.985614      40.985614      40.985614      1.0630033     -253.15307      984.45002      1350.5483    
      2000   2000           305.52559     -17.836919      4088.556       4106.5371      6392.2998     -2285.7627      2380.0429      4888.9178     -8586.1306     -52.893495     -2983.8145      6952.2684     -4884.1531     -464.43136      69122.623      41.039942      41.039942      41.039942      1.0587874     -490.73795      1033.788      -596.56084    
      3000   3000           294.52389     -899.56683      2999.0125      3902.7898      6162.1189     -2259.3291      2342.9519      4997.1389     -8539.4906     -55.227299     -3061.6191      6946.3097     -4889.3926     -466.00399      68889.353      40.993724      40.993724      40.993724      1.0623726     -1268.6559      350.36793     -1780.4125    
      4000   4000           298.9215      -781.48904      3233.8654      4022.4444      6254.127      -2231.6826      2331.8903      5029.9973     -8593.9113     -56.385646     -3019.4118      6960.8103     -4884.6717     -463.97579      69190.493      41.05337       41.05337       41.05337       1.0577488     -289.99375     -461.37946     -1593.0939    
      5000   5000           305.03285      316.84516      4452.9345      4134.4324      6381.9906     -2247.5581      2312.9054      5061.7832     -8569.8209     -53.678339     -3051.3795      6940.4686     -4887.8366     -465.74957      68926.984      41.001187      41.001187      41.001187      1.0617926      932.24991     -1853.4499      1871.7355    
      6000   6000           296.83567     -135.81118      3786.4937      3922.6663      6210.4867     -2287.8204      2346.0019      4911.4773     -8536.8313     -54.904538     -3021.7972      6951.3307     -4883.0973     -466.9423       68750.922      40.966247      40.966247      40.966247      1.0645117      1505.41       -753.84982     -1158.9938    
      7000   7000           299.31971      791.38342      4887.5525      4093.9997      6262.4585     -2168.4588      2385.7943      5085.558      -8595.1528     -55.298493     -3073.0586      6962.073      -4878.3742     -466.90525      68756.377      40.96733       40.96733       40.96733       1.0644272      2050.0149     -665.66792      989.80331    
      8000   8000           296.16934     -1158.0714      2761.6202      3924.3513      6196.5454     -2272.1941      2390.0699      4934.4752     -8595.1078     -52.246581     -3018.499       6949.1102     -4879.996      -466.30888      68844.311      40.984787      40.984787      40.984787      1.0630677     -2305.5167     -1920.3816      751.68409    
      9000   9000           306.42999     -519.84545      3601.7572      4122.3802      6411.222      -2288.8418      2337.4875      4960.4751     -8586.3504     -54.789629     -3005.7753      6946.0429     -4885.932      -467.48586      68670.984      40.950363      40.950363      40.950363      1.0657509     -226.96869      1203.8659     -2536.4336    
     10000   10000          304.46282     -180.27584      3922.3175      4103.3258      6370.0642     -2266.7384      2313.381       5018.4329     -8579.1419     -55.578068     -3019.4779      6941.4891     -4885.8436     -466.29065      68847.003      40.985321      40.985321      40.985321      1.0630261      145.94593      214.48408     -901.25752    
     11000   11000          295.44904      72.893025      3875.9521      3803.0741      6181.4751     -2378.4011      2323.279       4958.0197     -8596.0099     -54.03963      -3081.0037      6950.9803     -4879.6268     -468.28137      68554.326      40.927161      40.927161      40.927161      1.0675644      855.12344     -755.22402      118.77966    
     12000   12000          303.30915     -734.1983       3237.7111      3974.072       6345.9267     -2371.8547      2307.335       4974.9512     -8529.7459     -53.392509     -3128.4955      6939.6869     -4882.1938     -466.81014      68770.386      40.970112      40.970112      40.970112      1.0642104     -1232.7863      343.5186      -1313.3272    
     13000   13000          299.26336     -595.62797      3442.2123      4043.0198      6261.2795     -2218.2597      2404.5689      5110.0485     -8678.8542     -56.715807     -3049.2759      6940.5971     -4888.6283     -464.14892      69164.685      41.048265      41.048265      41.048265      1.0581435      342.13574     -1195.2068     -933.81283    
     14000   14000          295.37109      75.026887      3968.8502      3893.5133      6179.8444     -2286.3311      2354.2897      4914.0883     -8519.8753     -53.415881     -3037.2956      6940.982      -4885.1043     -466.25829      68851.781      40.98627       40.98627       40.98627       1.0629523      862.20507     -1389.0787      751.9543     
     15000   15000          301.97864     -1363.2433      2659.1568      4032.7757      6318.0894     -2285.3137      2374.2326      4843.9825     -8542.9183     -52.444597     -2976.9101      6955.4825     -4886.7383     -464.64873      69090.286      41.033541      41.033541      41.033541      1.0592829     -1644.0628     -2000.7627     -444.90445    
     16000   16000          300.11403      952.95968      4912.4549      3959.891       6279.0775     -2319.1866      2322.6011      4924.6756     -8544.3138     -53.508694     -3052.9499      6962.3345     -4878.0253     -468.37968      68539.937      40.924298      40.924298      40.924298      1.0677885      1117.524      -285.54224      2026.8973    
     17000   17000          296.16608      47.13919       4121.5643      4074.3212      6196.4773     -2122.1561      2402.2328      5068.3991     -8558.7003     -56.759692     -3047.9236      6952.0379     -4881.4423     -467.15584      68719.495      40.960004      40.960004      40.960004      1.0649985      1404.6809     -18.958007     -1244.3053    
     18000   18000          303.26696      709.78825      4733.6707      4023.4605      6345.0441     -2321.5836      2357.1125      4868.0485     -8546.9621     -49.294313     -3030.9999      6964.0158     -4883.504      -467.90696      68609.182      40.938075      40.938075      40.938075      1.0667109      1405.6657     -70.773188      794.47224    
     19000   19000          302.40759     -239.41435      3824.8794      4066.2912      6327.0641     -2260.7729      2390.6817      4946.6925     -8614.2998     -51.582991     -3009.7978      6958.7845     -4881.251      -464.31132      69140.493      41.043478      41.043478      41.043478      1.0585137     -1077.6797      1210.0623     -850.62567    
     20000   20000          301.72418      344.40226      4396.0829      4048.3396      6312.7656     -2264.4259      2323.2572      4983.3362     -8624.1823     -53.670544     -2986.74        6972.7512     -4879.1778     -463.68695      69233.594      41.061892      41.061892      41.061892      1.0570903      1221.1959      681.16775     -869.15692    
     21000   21000          301.79736     -502.79316      3542.0017      4045.5091      6314.2967     -2268.7876      2347.6283      4882.6395     -8506.8907     -53.162178     -3032.0899      6969.2577     -4876.1704     -467.52101      68665.821      40.949337      40.949337      40.949337      1.065831      -1566.8085     -439.38158      497.8106     
     22000   22000          295.65278     -927.41116      3076.0205      4003.1285      6185.7379     -2182.6094      2420.336       5011.1598     -8577.0053     -52.016067     -3064.0859      6959.5307     -4880.5286     -468.33824      68546.001      40.925504      40.925504      40.925504      1.0676941     -1008.8213     -1423.3888     -350.02336    
     23000   23000          297.70546      105.80275      4073.8783      3967.7128      6228.6847     -2260.9719      2338.524       5007.5243     -8550.3696     -52.716782     -3074.5332      6952.9869     -4882.3876     -466.58536      68803.516      40.97669       40.97669       40.97669       1.063698       769.50163      396.24336     -848.33675    
     24000   24000          305.31542     -47.982759      4196.5845      4244.518       6387.9025     -2143.3846      2359.8028      5038.2516     -8546.218      -52.960702     -3025.5146      6966.4461     -4883.1917     -468.66659      68497.977      40.915945      40.915945      40.915945      1.0684426      583.87285     -112.23613     -615.585      
     25000   25000          303.62389      600.71612      4578.9356      3979.395       6352.5119     -2373.1169      2294.8354      4964.1519     -8579.6761     -51.446856     -3089.9544      6970.3345     -4881.3613     -469.10309      68434.24       40.90325       40.90325       40.90325       1.0694377     -333.38309     -380.64741      2516.1789    
     26000   26000          301.50359      1086.8432      5136.9989      4056.6736      6308.1503     -2251.4767      2385.7924      4887.3692     -8540.1978     -52.903247     -3023.1683      6973.9647     -4882.3336     -471.00985      68157.202      40.84798       40.84798       40.84798       1.0737847      644.20924      1995.2494      621.07085    
     27000   27000          293.46374     -468.77151      3382.8875      3852.074       6139.9381     -2287.8641      2359.3454      4951.7916     -8552.8686     -54.30139      -3081.3494      6970.2746     -4880.7564     -467.771        68629.124      40.942041      40.942041      40.942041      1.0664009     -1391.0633      666.72114     -681.97232    
     28000   28000          296.7797       286.99557      4340.7768      4052.9216      6209.3156     -2156.3939      2415.7916      5045.7024     -8606.822      -55.007163     -3019.5666      6946.665      -4883.1571     -466.78702      68773.793      40.970789      40.970789      40.970789      1.0641577      724.28643      385.24797     -248.5477     
     29000   29000          300.93797      1022.3129      5150.4134      4130.2172      6296.3163     -2166.0991      2363.811       4965.697      -8544.1881     -54.389981     -2962.9592      6953.1023     -4887.172      -469.15656      68426.441      40.901696      40.901696      40.901696      1.0695596     -88.296758      1749.6421      1405.5932    
     30000   30000          298.96894      52.950375      3992.9366      3939.6603      6255.1195     -2315.4592      2322.6914      4930.8994     -8603.8178     -51.825313     -3001.385       6968.8302     -4880.8522     -465.32074      68990.507      41.013778      41.013778      41.013778      1.0608149     -946.16993     -240.0128       1345.0339    
     31000   31000          307.78878     -216.89058      4029.8252      4247.5849      6439.651      -2192.0661      2393.1632      4996.7646     -8594.7916     -53.751434     -3004.4017      6955.8209     -4884.8701     -466.31658      68843.174      40.984562      40.984562      40.984562      1.0630852     -1803.8236      715.53579      437.61606    
     32000   32000          302.56219      699.50633      4745.2584      4043.0704      6330.2987     -2287.2284      2301.8534      4998.2538     -8562.4323     -51.645166     -3045.9415      6957.5188     -4884.8354     -466.39711      68831.288      40.982203      40.982203      40.982203      1.0632688      1228.6829      307.37952      562.45652    
     33000   33000          300.22618     -1429.126       2649.2918      4086.1566      6281.424      -2195.2674      2349.1304      5061.7673     -8560.2794     -59.442616     -3060.0613      6956.0098     -4882.3915     -465.66355      68939.718      41.003711      41.003711      41.003711      1.0615964     -2309.7395      273.88234     -2251.5209    
     34000   34000          300.77222     -717.43392      3290.505       4011.4076      6292.8483     -2281.4407      2324.8781      4883.8184     -8545.6721     -50.197593     -2979.359       6966.78       -4881.6885     -465.9324       68899.938      40.995823      40.995823      40.995823      1.0622094      10.597587     -315.78203     -1847.1173    
     35000   35000          301.49147     -993.53118      3246.4148      4242.804       6307.8967     -2065.0927      2416.0804      4981.7983     -8490.1177     -55.541368     -2970.8954      6941.2983     -4887.7153     -466.84222      68765.66       40.969174      40.969174      40.969174      1.0642835     -768.30352     -605.3079      -1606.9821    
     36000   36000          299.23581      413.12117      4400.4513      3984.9951      6260.7031     -2275.708       2340.5843      4945.043      -8582.452      -48.811875     -2995.1208      6948.6488     -4883.5995     -465.55378      68955.972      41.006934      41.006934      41.006934      1.0613462      270.83023      1148.5776     -180.04432    
     37000   37000          300.60998     -954.44399      3090.1109      4046.0249      6289.454      -2243.4291      2359.9295      4917.9235     -8558.4659     -51.579642     -2974.5613      6948.7623     -4885.4376     -467.46517      68674.023      40.950967      40.950967      40.950967      1.0657037     -2405.647      -1111.9668      654.28191    
     38000   38000          301.60307      810.5445       4936.5712      4122.413       6310.2316     -2187.8186      2332.2463      4967.2982     -8513.5099     -53.792394     -2989.9782      6955.1357     -4885.2183     -466.10709      68874.115      40.990701      40.990701      40.990701      1.0626076      1630.7532      358.96325      441.91702    
     39000   39000          300.3564       304.94532      4224.3486      3920.8953      6284.1484     -2363.2531      2340.3709      4911.2809     -8588.7951     -47.619804     -3043.7529      6950.3956     -4885.1326     -470.48718      68232.919      40.863101      40.863101      40.863101      1.0725931      891.93455      547.48503     -524.58361    
     40000   40000          297.12714      994.03638      5001.357       4002.818       6216.5848     -2213.7668      2350.2975      4967.526      -8540.1383     -55.561921     -3002.4278      6949.4415     -4882.9037     -466.07402      68879.002      40.99167       40.99167       40.99167       1.0625322      1552.8324      707.24548      722.03124    
     41000   41000          299.02866     -651.51287      3389.0171      4044.4401      6256.369      -2211.9289      2334.4246      5049.4683     -8580.0109     -52.042164     -3042.874       6961.1795     -4882.0742     -465.3921       68979.928      41.011682      41.011682      41.011682      1.0609776      357.07869     -1358.6546     -952.9627     
     42000   42000          298.46443      489.83207      4522.6178      4027.7475      6244.564      -2216.8165      2342.7448      5041.3071     -8599.6338     -51.980356     -3001.7341      6938.9034     -4886.4235     -463.41866      69273.675      41.069815      41.069815      41.069815      1.0564787      763.04997      48.664728      657.7815     
     43000   43000          301.13419     -643.04409      3515.2079      4162.0046      6300.4217     -2138.4171      2428.5814      5046.7414     -8580.1648     -54.914954     -3038.7101      6942.2328     -4882.1828     -465.4688       68968.562      41.009429      41.009429      41.009429      1.0611525     -744.14165     -791.17091     -393.8197     
     44000   44000          293.35491     -213.72604      3775.5165      3992.2186      6137.6612     -2145.4426      2358.1816      4962.8773     -8530.5828     -51.593967     -2955.1679      6949.8625     -4879.0192     -461.75541      69523.2        41.119067      41.119067      41.119067      1.0526869     -1682.047       269.84018      771.02872    
     45000   45000          303.21706     -197.30356      4003.5285      4202.5356      6344          -2141.4644      2375.0919      4983.0543     -8567.1528     -52.338191     -2948.2183      6952.0999     -4884.0011     -464.17739      69160.443      41.047425      41.047425      41.047425      1.0582084     -609.48319     -1025.2256      1042.7981    
     46000   46000          297.98482     -68.838621      3949.2041      4018.5874      6234.5296     -2215.9422      2333.0019      4997.877      -8555.8347     -52.189461     -3018.3938      6961.5109     -4881.9139     -464.50938      69111.013      41.037644      41.037644      41.037644      1.0589652      806.02127     -1752.561       740.0239     
     47000   47000          304.93876      19.179197      4171.716       4152.2593      6380.022      -2227.7628      2281.9175      4933.4009     -8503.2938     -50.889651     -2961.2109      6955.8217     -4883.5085     -461.50725      69560.584      41.126436      41.126436      41.126436      1.0521211      437.00598     -581.98988      202.52149    
     48000   48000          301.94086     -148.14655      3919.2064      4068.9629      6317.299      -2248.3361      2239.1839      4976.9765     -8532.5761     -51.747995     -2938.9591      6942.8407     -4884.054      -463.15208      69313.547      41.077693      41.077693      41.077693      1.0558709      221.62603     -596.06958     -69.996103    
     49000   49000          301.39764      468.10226      4560.6947      4087.4145      6305.9335     -2218.5189      2315.9199      4973.5974     -8574.8255     -55.641296     -2954.6825      6958.4232     -4881.3102     -463.063        69326.882      41.080327      41.080327      41.080327      1.0556678      1053.948       1387.6172     -1037.2584    
     50000   50000          300.09153      537.56675      4730.8337      4188.0322      6278.6067     -2090.5746      2348.2611      5035.3276     -8517.6542     -55.789721     -2963.4376      6946.6025     -4883.8843     -463.66995      69236.132      41.062394      41.062394      41.062394      1.0570515      163.17013      1039.3428      410.18733    
     51000   51000          301.62134      320.84611      4401.337       4077.4078      6310.6138     -2233.206       2355.2116      4934.3853     -8545.9136     -54.795187     -2980.0628      6942.5724     -4884.6037     -463.72905      69227.308      41.06065       41.06065       41.06065       1.0571863      224.90758      1005.607      -267.97625    
     52000   52000          295.92099      573.67585      4486.3568      3910.0422      6191.3494     -2281.3072      2304.3965      4896.9417     -8497.0203     -51.06942      -2997.6119      6949.8284     -4886.7723     -466.04146      68883.814      40.992625      40.992625      40.992625      1.062458       1485.1574     -673.68433      909.55452    
     53000   53000          300.85181     -908.79466      3285.4985      4203.1348      6294.5135     -2091.3788      2384.173       4990.9288     -8451.1496     -53.114402     -3023.6109      6947.0055     -4885.6112     -463.67409      69235.514      41.062272      41.062272      41.062272      1.057061      -20.653991     -1418.233      -1287.497     
     54000   54000          297.47015      640.15666      4702.6808      4056.606       6223.7614     -2167.1554      2383.0001      4905.3307     -8488.5745     -53.717118     -2969.428       6939.3896     -4883.1562     -463.8965       69202.319      41.055708      41.055708      41.055708      1.057568       824.88727      864.41588      231.16682    
     55000   55000          305.13555      744.34304      5060.7465      4308.308       6384.1392     -2075.8312      2444.1278      4910.0242     -8483.2847     -51.893478     -2967.3752      6955.4272     -4882.857      -463.14796      69314.163      41.077814      41.077814      41.077814      1.0558615      294.15296      1541.2887      397.58746    
     56000   56000          296.97276     -21.454859      4018.8995      4040.4612      6213.3549     -2172.8937      2339.0582      5056.7483     -8534.0912     -54.227544     -3049.4511      6951.014      -4881.9443     -465.86555      68909.826      40.997784      40.997784      40.997784      1.062057      -340.31948      405.46139     -129.50648    
     57000   57000          299.80869     -153.50363      4037.9749      4192.1836      6272.6891     -2080.5055      2385.4428      5015.1901     -8534.0165     -55.121797     -2966.1609      6955.8301     -4881.6693     -466.04449      68883.367      40.992536      40.992536      40.992536      1.0624649     -205.78205     -650.28152      395.55268    
     58000   58000          299.633       -650.04261      3433.9532      4085.7223      6269.0133     -2183.291       2379.7805      4933.0599     -8508.6781     -52.044351     -3005.7217      6953.3381     -4883.0254     -466.94493      68750.535      40.96617       40.96617       40.96617       1.0645177     -1525.1094     -1228.8565      803.83806    
     59000   59000          307.67872     -262.57135      3932.3142      4197.9294      6437.3482     -2239.4188      2362.8056      4902.7192     -8534.2656     -56.168628     -2987.5081      6955.0182     -4882.0195     -462.81978      69363.314      41.087521      41.087521      41.087521      1.0551134     -1061.5269     -54.976828      328.78968    
     60000   60000          302.26466     -66.483456      4054.0646      4120.8487      6324.0737     -2203.225       2408.7875      4886.5738     -8546.1414     -49.71157      -2969.5891      6949.8531     -4882.9973     -466.07761      68878.473      40.991565      40.991565      40.991565      1.0625404     -631.40903     -72.716322      504.67498    
     61000   61000          299.8319      -14.866509      4017.1418      4032.0748      6273.1746     -2241.0999      2355.58        4888.695      -8514.4354     -52.788775     -3002.8226      6967.0746     -4882.4027     -466.10263      68874.775      40.990832      40.990832      40.990832      1.0625974      963.90473     -807.63712     -200.86714    
     62000   62000          300.11868      251.68806      4385.8231      4132.0383      6279.1747     -2147.1364      2355.0848      4958.7683     -8560.0548     -53.241387     -2924.0453      6962.1023     -4885.7503     -464.31713      69139.628      41.043307      41.043307      41.043307      1.058527       427.62592      685.72505     -358.2868     
     63000   63000          294.58909     -972.2347       3029.902       4009.5242      6163.4831     -2153.9589      2315.5564      5044.7039     -8492.744      -56.831111     -3043.8377      6961.9645     -4882.7708     -464.65452      69089.424      41.03337       41.03337       41.03337       1.0592961     -816.3656      -476.05707     -1624.2815    
     64000   64000          303.63806     -2285.552       1901.6233      4211.5638      6352.8084     -2141.2446      2418.9228      5003.31       -8579.1211     -53.930772     -2982.421       6937.703      -4885.7076     -463.24204      69300.086      41.075033      41.075033      41.075033      1.056076      -2828.4649     -3062.6347     -965.55651    
     65000   65000          298.48998      777.80347      4862.208       4076.0254      6245.0986     -2169.0732      2320.355       4969.1857     -8507.9038     -56.21107      -2942.498       6936.0991     -4888.1001     -463.19522      69307.092      41.076418      41.076418      41.076418      1.0559693      587.38578      1497.5438      248.48081    
     66000   66000          300.1143       638.53836      4748.8722      4105.0972      6279.0831     -2173.9859      2267.7114      5042.8929     -8507.3836     -53.907912     -2976.5345      6941.2622     -4888.0263     -464.37683      69130.739      41.041548      41.041548      41.041548      1.0586631      734.63184      685.94415      495.03908    
     67000   67000          299.54955     -439.22588      3692.2599      4136.4011      6267.2673     -2130.8662      2360.9368      4959.7625     -8468.2712     -56.466911     -2979.5263      6940.8815     -4888.1826     -463.0038       69335.746      41.082077      41.082077      41.082077      1.0555329     -1794.1829      137.12529      339.38       
     68000   68000          301.46422      620.63888      4637.2107      4014.9003      6307.3266     -2292.4263      2338.1744      4923.6424     -8565.7222     -50.81077      -2988.0977      6938.2611     -4887.8736     -466.92765      68753.079      40.966675      40.966675      40.966675      1.0644783      771.32294      1029.085       61.508655    
     69000   69000          302.42423      1005.888       5108.1024      4093.3041      6327.4123     -2234.1082      2355.613       5033.1032     -8590.0953     -53.035899     -3007.4821      6916.6213     -4888.8323     -464.07432      69175.802      41.050464      41.050464      41.050464      1.0579734      370.26479      2126.4734      520.92592    
     70000   70000          300.21717      181.06663      4276.7999      4094.213       6281.2355     -2187.0225      2366.1805      4987.7481     -8541.4581     -54.944075     -2985.4687      6932.0987     -4891.179      -464.287        69144.115      41.044195      41.044195      41.044195      1.0584583      1502.4552     -927.06957     -32.185768    
     71000   71000          296.85824      657.80634      4608.6066      3946.7954      6210.9589     -2264.1635      2287.1501      4894.9546     -8502.0918     -49.288756     -2945.789       6938.8698     -4887.9684     -465.35202      68985.869      41.012859      41.012859      41.012859      1.0608863      1367.4773      265.19947      340.74223    
     72000   72000          305.60746     -337.22611      3823.4115      4161.7609      6394.0126     -2232.2517      2350.3247      4961.5087     -8509.6384     -53.195481     -3026.4438      6936.0832     -4890.8906     -466.6308       68796.817      40.97536       40.97536       40.97536       1.0638015     -1159.2078      79.057702      68.471794    
     73000   73000          303.10707      1322.4654      5318.4212      3989.9436      6341.6988     -2351.7552      2312.2768      4808.5096     -8501.7766     -52.180834     -2986.2733      6953.6593     -4885.9701     -466.06633      68880.139      40.991896      40.991896      40.991896      1.0625147      603.29685      1783.5794      1580.52      
     74000   74000          300.50192      27.8549        3987.406       3959.3191      6287.1931     -2327.8739      2285.6586      4936.1542     -8519.8743     -53.904054     -3017.3466      6928.6475     -4887.2094     -464.31771      69139.542      41.04329       41.04329       41.04329       1.0585283     -1135.9966     -75.974908      1295.5362    
     75000   75000          299.66763      725.81402      4670.5575      3942.2451      6269.7379     -2327.4928      2293.8029      4957.7538     -8581.0364     -55.205396     -2995.5413      6940.9686     -4888.235      -466.5791       68804.44       40.976874      40.976874      40.976874      1.0636837      1168.951      -671.58594      1680.077     
     76000   76000          301.81887      1035.5651      5044.9627      4004.4174      6314.7468     -2310.3293      2280.866       4998.6405     -8497.5982     -57.923885     -3073.2443      6929.2409     -4890.3103     -465.94436      68898.169      40.995472      40.995472      40.995472      1.0622366      1129.6414      2053.3524     -76.298502    
     77000   77000          304.26231      750.2844       4873.163       4117.5841      6365.869      -2248.2849      2307.2504      5029.2585     -8571.9433     -54.960218     -3014.6906      6943.3851     -4886.5847     -464.90446      69052.281      41.026016      41.026016      41.026016      1.0598659      618.91443      598.64509      1033.2937    
     78000   78000          301.89729      73.276305      4181.5015      4107.9302      6316.3874     -2208.4572      2366.8366      5058.8964     -8606.9269     -52.992201     -3025.243       6940.9454     -4889.9735     -466.30756      68844.505      40.984826      40.984826      40.984826      1.0630646     -2356.2699      1523.4613      1052.6375    
     79000   79000          303.35678      550.02281      4685.3035      4133.222       6346.9232     -2213.7012      2354.1158      5079.6632     -8659.2546     -54.646629     -3002.1108      6953.2592     -4884.7274     -466.43929      68825.064      40.980968      40.980968      40.980968      1.0633649      593.34179      94.158087      962.56854    
     80000   80000          295.20376     -517.23719      3298.1997      3813.6118      6176.3434     -2362.7316      2330.7868      4983.6629     -8637.62       -53.464995     -3043.2443      6944.3725     -4887.2245     -469.84294      68326.478      40.881769      40.881769      40.881769      1.0711244      109.35225     -1370.1505     -290.91332    
     81000   81000          299.24111     -649.77599      3392.5884      4047.1475      6260.8141     -2213.6665      2416.0042      4942.603      -8546.9125     -53.071786     -3038.4515      6954.7452     -4888.5831     -464.76391      69073.164      41.030151      41.030151      41.030151      1.0595455     -1759.444       684.03471     -873.91873    
     82000   82000          298.90137     -102.83718      3831.4204      3934.8491      6253.7059     -2318.8569      2332.7638      4882.8573     -8542.1595     -53.003828     -3016.9528      6959.6909     -4882.0527     -465.50783      68962.779      41.008283      41.008283      41.008283      1.0612415      1051.4767     -9.0241567     -1350.9641    
     83000   83000          298.37908      616.90106      4625.1471      4006.7133      6242.7783     -2236.065       2366.1327      4960.8434     -8566.7152     -52.968189     -3004.5212      6946.8001     -4885.6364     -467.02482      68738.774      40.963834      40.963834      40.963834      1.0646998      419.54556      657.90463      773.253      
     84000   84000          299.283       -1541.8246      2449.9196      3992.9284      6261.6904     -2268.7619      2399.3279      4851.8614     -8542.0743     -52.365667     -3024.4336      6975.7326     -4876.8101     -467.82581      68621.083      40.940442      40.940442      40.940442      1.0665259     -2446.3317     -1157.1629     -1021.9792    
     85000   85000          302.98792      922.3375       5052.3445      4128.3522      6339.2059     -2210.8537      2352.3075      4967.9662     -8571.9939     -51.303729     -2979.8935      6956.1893     -4884.1255     -467.34665      68691.438      40.954428      40.954428      40.954428      1.0654335      108.86707      1726.8613      931.28408    
     86000   86000          301.75575      1281.863       5390.1223      4101.64        6313.426      -2211.786       2376.1108      4922.7733     -8590.6331     -51.21922      -2926.1488      6947.294      -4889.9629     -465.77992      68922.494      41.000296      41.000296      41.000296      1.0618617      1508.2884      1029.4258      1307.8747    
     87000   87000          300.02171     -18.58283       3985.2343      4003.9924      6277.146      -2273.1536      2399.9563      4866.8569     -8536.0418     -52.238568     -3012.6068      6945.5818     -4884.6615     -463.81078      69215.109      41.058237      41.058237      41.058237      1.0573726     -1443.7446      1578.9056     -190.90945    
     88000   88000          303.95968     -491.85692      3703.5034      4198.2355      6359.5373     -2161.3019      2404.9288      4957.9419     -8528.0014     -55.080889     -2992.4837      6936.2781     -4884.8847     -465.46424      68969.237      41.009563      41.009563      41.009563      1.0611421     -517.85409     -801.13138     -156.58527    
     89000   89000          298.11448     -705.94041      3331.3625      4039.5751      6237.2423     -2197.6672      2380.9792      4946.0102     -8486.268      -54.262524     -3030.2871      6935.5581     -4889.3971     -466.68306      68789.112      40.973831      40.973831      40.973831      1.0639207     -309.24253      141.59492     -1950.1736    
     90000   90000          298.80748     -505.3163       3431.2551      3937.6441      6251.7414     -2314.0973      2366.1798      4835.2743     -8485.3559     -52.46667      -3011.8914      6922.023      -4887.8604     -467.19337      68713.975      40.958907      40.958907      40.958907      1.0650841      778.30364     -2185.3276     -108.92496    
     91000   91000          302.71047     -162.93057      3961.7042      4125.505       6333.401      -2207.896       2426.5288      4924.8951     -8509.5859     -56.065268     -3065.593       6953.4499     -4881.5256     -465.69798      68934.62       41.002701      41.002701      41.002701      1.0616749     -17.175627     -673.61256      201.99649    
     92000   92000          299.78833     -593.03419      3388.5598      3985.5713      6272.2631     -2286.6919      2393.186       5025.6097     -8644.7389     -50.472595     -3062.2088      6935.5931     -4883.6603     -465.06613      69028.278      41.021262      41.021262      41.021262      1.0602345      921.52255     -1125.6034     -1575.0217    
     93000   93000          297.71391      491.53847      4611.1144      4118.5768      6228.8615     -2110.2847      2366.3261      5038.0945     -8505.9311     -51.88995      -3030.4578      6953.8593     -4880.2858     -467.23538      68707.797      40.957679      40.957679      40.957679      1.0651798      889.47008      471.19246      113.95287    
     94000   94000          302.4384      -1411.4291      2580.8927      4003.2306      6327.7087     -2324.4781      2357.6591      4883.6639     -8581.9771     -52.542064     -2980.4499      6935.1551     -4885.9872     -464.59436      69098.371      41.035142      41.035142      41.035142      1.059159      -3173.5418      584.14719     -1644.8927    
     95000   95000          300.5605       1632.7336      5719.1831      4083.1811      6288.4186     -2205.2375      2395.3798      4985.862      -8567.4421     -54.010957     -3029.7664      6947.9744     -4883.2342     -467.24981      68705.675      40.957258      40.957258      40.957258      1.0652127      1138.8229      2080.7853      1678.5925    
     96000   96000          297.77789      64.47402       4020.9522      3956.408       6230.2001     -2273.7921      2325.662       4990.5356     -8503.7039     -52.460438     -3087.4773      6939.8724     -4886.2204     -467.67641      68643.003      40.9448        40.9448        40.9448        1.0661853      507.20587     -1022.0776      708.2938     
     97000   97000          295.07384      552.06298      4429.6355      3876.2403      6173.6252     -2297.3849      2338.9423      4899.5868     -8533.2757     -54.580641     -3006.9403      6946.6328     -4887.7502     -467.05807      68733.881      40.962862      40.962862      40.962862      1.0647756      219.27425      1108.4698      328.44491    
     98000   98000          304.75637      1367.1949      5418.1621      4048.7362      6376.2059     -2327.4697      2339.1481      4912.4363     -8561.8395     -50.836133     -3011.6079      6931.3161     -4886.0867     -467.42241      68680.304      40.952216      40.952216      40.952216      1.0656062      2575.3501      1150.0802      376.15449    
     99000   99000          303.40742     -708.09853      3345.4278      4060.432       6347.9829     -2287.5509      2401.9831      4929.7682     -8607.8524     -55.998332     -3031.6308      6959.7802     -4883.6009     -463.6633       69237.124      41.06259       41.06259       41.06259       1.0570364      414.47967     -1570.8121     -967.9631     
    100000   100000         295.82166      400.02099      4275.9025      3873.4403      6189.2711     -2315.8309      2359.8494      4832.2045     -8525.0097     -50.160641     -2976.4822      6936.3924     -4892.6247     -465.34518      68986.884      41.01306       41.01306       41.01306       1.0608706     -17.239425      44.076075      1173.2263    
    101000   101000         298.13238     -503.25861      3494.7178      3999.5024      6237.6168     -2238.1145      2378.3533      4970.3659     -8590.8415     -54.186462     -2997.2282      6944.4065     -4888.984      -466.7698       68776.329      40.971292      40.971292      40.971292      1.0641184     -1352.3973      621.60188     -778.98043    
    102000   102000         298.02802      305.53497      4232.4761      3925.4152      6235.4333     -2310.0181      2355.2117      4888.7958     -8588.0714     -53.656194     -2972.8694      6944.8613     -4884.29       -465.85851      68910.866      40.99799       40.99799       40.99799       1.0620409      959.25892     -107.37939      64.725396    
    103000   103000         300.8952       1082.0208      5068.7409      3980.2506      6295.4213     -2315.1707      2290.0448      5009.1417     -8648.7215     -54.53299      -2995.6334      6962.2638     -4877.7331     -465.40249      68978.389      41.011377      41.011377      41.011377      1.0610013      1269.8845      1308.6881      667.48992    
    104000   104000         296.75815     -413.0162       3574.9955      3989.7646      6208.8648     -2219.1002      2345.9673      5022.4878     -8626.0151     -55.257918     -2984.8849      6961.7344     -4883.1319     -466.20652      68859.427      40.987787      40.987787      40.987787      1.0628343     -146.41501     -995.99947     -96.634117    
    105000   105000         298.98235      1868.6137      5830.0604      3952.2992      6255.4002     -2303.101       2320.0237      4901.1987     -8582.7942     -52.833733     -2940.5226      6939.0979     -4887.2708     -465.90438      68904.082      40.996645      40.996645      40.996645      1.0621455      808.18359      2187.5714      2610.0861    
    106000   106000         294.79728     -559.17443      3299.3565      3865.642       6167.8387     -2302.1967      2305.8643      4888.3903     -8538.9894     -55.476881     -2980.4155      6960.6493     -4882.2189     -462.30594      69440.41       41.102738      41.102738      41.102738      1.0539419     -1533.2094      320.66871     -464.98257    
    107000   107000         305.36194      877.92395      5002.4745      4114.8482      6388.8758     -2274.0276      2291.8201      4964.2072     -8573.3518     -52.259957     -2978.0922      6958.4291     -4884.78       -463.06757      69326.197      41.080191      41.080191      41.080191      1.0556783      2704.006      -96.256237      26.022137    
    108000   108000         297.59519     -1318.2132      2567.3056      3893.2651      6226.3775     -2333.1123      2338.3249      4914.0598     -8601.5517     -50.417686     -3002.4584      6956.7145     -4887.7838     -465.44997      68971.352      41.009982      41.009982      41.009982      1.0611095     -719.81246     -1491.497      -1743.3302    
    109000   109000         303.42827     -1080.9967      3041.4311      4137.0185      6348.419      -2211.4005      2411.7788      4941.3346     -8642.5126     -54.221216     -2939.2758      6953.8519     -4882.3562     -461.94997      69493.919      41.113293      41.113293      41.113293      1.0531304     -1442.8158     -1027.3553     -772.81893    
    110000   110000         297.59217     -497.96602      3547.0696      4051.6734      6226.3143     -2174.6409      2300.7947      4977.6752     -8530.9211     -53.35301      -2923.4174      6942.1801     -4887.5993     -462.02643      69482.418      41.111025      41.111025      41.111025      1.0533047      523.32177     -66.613515     -1950.6063    
    111000   111000         298.12403     -93.696427      3977.5916      4072.5047      6237.4422     -2164.9375      2371.1512      4990.7294     -8576.4903     -54.107661     -2957.773       6946.1132     -4884.5605     -462.18355      69458.798      41.106366      41.106366      41.106366      1.0536629     -11.443939     -740.8129       471.16756    
    112000   112000         297.91056     -1155.8591      2783.0623      3945.9323      6232.9758     -2287.0435      2332.8655      4943.1043     -8559.5683     -53.077632     -3017.5001      6953.1667     -4886.034      -465.3625       68984.315      41.012551      41.012551      41.012551      1.0609101     -1601.9338     -1767.2129     -98.430707    
    113000   113000         299.70714      979.09579      5030.5669      4043.9746      6270.5645     -2226.5898      2363.7318      5000.5046     -8625.3307     -53.176248     -2993.6156      6967.9049     -4886.6085     -464.62769      69093.415      41.03416       41.03416       41.03416       1.059235       850.29498      415.38417      1671.6082    
    114000   114000         296.16485      119.91314      3964.5322      3843.7763      6196.4516     -2352.6753      2335.8292      4834.5825     -8553.9897     -53.863094     -2986.4328      6961.0186     -4889.82       -464.9177       69050.314      41.025626      41.025626      41.025626      1.0598961     -605.34382      501.63066      463.45257    
    115000   115000         301.20625      320.99273      4311.2196      3988.9763      6301.9292     -2312.9529      2299.0935      4947.1695     -8564.3859     -51.765087     -2996.2139      6944.8719     -4891.7228     -466.36829      68835.542      40.983047      40.983047      40.983047      1.0632031      48.912155      1013.3278     -99.261774    
    116000   116000         295.25085      870.32346      4863.7571      3986.8659      6177.3285     -2190.4626      2369.9775      4930.945      -8542.4824     -53.881949     -2950.0553      6945.2124     -4890.1778     -464.67851      69085.858      41.032664      41.032664      41.032664      1.0593508      1125.1976      429.79251      1055.9803    
    117000   117000         300.20713      263.75106      4340.3382      4073.9469      6281.0254     -2207.0785      2375.2906      4949.6532     -8583.3633     -53.983624     -2977.4637      6965.8886     -4883.1003     -463.54497      69254.799      41.066084      41.066084      41.066084      1.0567666      1298.6044      157.89439     -665.24557    
    118000   118000         301.82257     -444.43376      3637.3197      4083.7172      6314.824      -2231.1068      2387.7458      4942.6383     -8545.8068     -54.754964     -3025.4224      6948.7808     -4884.2876     -466.12557      68871.385      40.990159      40.990159      40.990159      1.0626498      919.67874     -729.33835     -1523.6417    
    119000   119000         306.20663     -628.4646       3489.5685      4123.9536      6406.5487     -2282.5951      2356.6786      4976.8515     -8619.1325     -53.974542     -3015.9217      6954.331      -4881.4275     -463.8157       69214.375      41.058092      41.058092      41.058092      1.0573838     -98.220752     -56.570474     -1730.6026    
    120000   120000         296.99102     -1203.551       2806.4511      4010.1727      6213.737      -2203.5643      2408.6509      4969.7305     -8567.3032     -54.068175     -3031.7743      6952.0672     -4880.8671     -468.11881      68578.133      40.931898      40.931898      40.931898      1.0671938     -2782.6593     -430.9787      -397.01494    
    121000   121000         301.69866      1583.0221      5710.5867      4121.4026      6312.2316     -2190.8291      2395.2354      4913.3666     -8559.012      -52.139711     -2958.9366      6954.362      -4883.7048     -466.36975      68835.325      40.983004      40.983004      40.983004      1.0632064      1457.1399      2359.5016      932.42479    
    122000   122000         300.73247      508.23078      4532.3771      4021.1482      6292.0167     -2270.8685      2328.2823      4911.1154     -8543.6334     -55.126896     -2972.6769      6950.0683     -4888.8974     -465.43948      68972.907      41.01029       41.01029       41.01029       1.0610856     -294.97447      306.53101      1513.1358    
    123000   123000         309.50708     -333.71061      3899.3904      4233.2387      6475.6018     -2242.3631      2384.2943      4913.6619     -8533.5732     -52.445944     -3025.6458      6957.6207     -4886.2751     -467.99211      68596.699      40.935592      40.935592      40.935592      1.066905      -2371.4052      739.71021      630.56321    
    124000   124000         298.86847      667.75463      4632.7244      3965.8336      6253.0175     -2287.1839      2359.4661      5014.8204     -8644.9856     -54.457283     -3022.0848      6947.8988     -4887.8415     -468.79159      68479.713      40.912308      40.912308      40.912308      1.0687276      527.5759       277.89822      1197.7898    
    125000   125000         303.15038      119.52572      4274.2267      4154.3505      6342.605      -2188.2545      2355.4262      5065.0226     -8601.0649     -57.633751     -3026.6119      6962.9514     -4886.3441     -466.81619      68769.495      40.969935      40.969935      40.969935      1.0642242      223.51411     -1130.0402      1265.1032    
    126000   126000         297.82717     -239.79711      3679.5026      3921.6152      6231.2312     -2309.6161      2355.9173      4960.4482     -8614.1051     -52.546489     -3010.7732      6943.9182     -4892.475      -463.70771      69230.494      41.061279      41.061279      41.061279      1.0571376     -203.07449      810.00416     -1326.321     
    127000   127000         302.55339     -613.16281      3571.6522      4190.2788      6330.1146     -2139.8358      2319.315       5088.8534     -8593.2513     -52.446334     -2965.1517      6948.3837     -4885.5386     -464.05006      69179.419      41.051179      41.051179      41.051179      1.0579181     -2000.9218     -733.37954      894.81291    
    128000   128000         298.46257     -426.72056      3691.2914      4122.2483      6244.5252     -2122.2769      2346.7116      5017.8469     -8555.6613     -57.293567     -2946.8537      6959.1789     -4886.2059     -463.58287      69249.137      41.064965      41.064965      41.064965      1.056853       569.7762      -697.80152     -1152.1364    
    129000   129000         295.13949      1526.3091      5438.1201      3900.0106      6174.9987     -2274.9881      2274.582       4980.8136     -8577.6488     -54.37699      -2969.3847      6956.6066     -4885.5797     -464.59324      69098.537      41.035175      41.035175      41.035175      1.0591564      3076.0454      473.99807      1028.8838    
    130000   130000         303.99779     -201.12594      3913.5609      4116.8757      6360.3347     -2243.459       2344.8369      4965.8548     -8604.5379     -52.871273     -2966.7635      6957.4679     -4887.446      -463.14467      69314.656      41.077912      41.077912      41.077912      1.055854       103.27716     -328.73977     -377.91523    
    131000   131000         299.96138      1434.3611      5438.2005      4003.358       6275.8837     -2272.5257      2304.6223      4935.4941     -8543.7858     -57.56909      -2973.5427      6948.4861     -4886.2306     -468.02808      68591.427      40.934543      40.934543      40.934543      1.066987       1768.5861      367.56032      2166.937     
    132000   132000         299.94529      747.9303       4738.034       3987.9885      6275.5471     -2287.5586      2358.3753      4849.2169     -8526.6685     -53.557608     -2977.4771      6946.8298     -4884.2774     -466.86484      68762.329      40.968512      40.968512      40.968512      1.0643351      249.722        2389.213      -395.1441     
    133000   133000         298.62639      53.469008      4068.2136      4014.3965      6247.9527     -2233.5562      2343.7524      4965.7588     -8583.5684     -54.609381     -2949.9441      6934.6406     -4889.5862     -465.15619      69014.911      41.018614      41.018614      41.018614      1.0604398     -1648.9795      808.50014      1000.8864    
    134000   134000         299.02524      665.10802      4722.0175      4050.5504      6256.2975     -2205.7471      2331.7815      4975.3302     -8571.4157     -55.290894     -2955.9485      6954.3046     -4884.5084     -463.75124      69223.995      41.059994      41.059994      41.059994      1.0572369      1762.2734     -613.48607      846.53674    
    135000   135000         296.07308     -246.04208      3600.7237      3848.7431      6194.5316     -2345.7885      2307.1622      4863.1701     -8573.0335     -52.208486     -2951.6031      6947.598      -4886.8737     -464.45261      69119.461      41.039316      41.039316      41.039316      1.0588358     -307.9106      -964.87351      534.65785    
    136000   136000         299.89184      681.08711      4699.1238      4013.8384      6274.4287     -2260.5903      2362.4263      4957.622      -8580.1879     -52.118514     -2991.8243      6933.6418     -4890.1497     -465.31693      68991.072      41.01389       41.01389       41.01389       1.0608062      1999.0582      166.57549     -122.37234    
    137000   137000         300.59645      282.49167      4404.0984      4119.4066      6289.1708     -2169.7642      2371.4886      4968.3609     -8520.4642     -51.520211     -2986.7733      6935.498      -4886.354      -464.56701      69102.439      41.035947      41.035947      41.035947      1.0590966      1815.1416     -729.063       -238.60358    
    138000   138000         300.62946      383.67037      4404.2258      4018.1814      6289.8614     -2271.68        2338.8546      4918.7973     -8553.4925     -54.203822     -2977.5852      6937.3666     -4881.4169     -465.30596      68992.698      41.014212      41.014212      41.014212      1.0607812     -802.12692      576.75131      1376.3867    
    139000   139000         302.3298      -355.68087      3665.9517      4024.1555      6325.4365     -2301.281       2279.8832      5078.5844     -8533.9705     -52.541297     -3119.7113      6928.2497     -4881.7752     -464.88754      69054.795      41.026514      41.026514      41.026514      1.0598273     -1012.2148      424.76368     -479.59146    
    140000   140000         301.00567     -342.79153      3683.5141      4029.2585      6297.7327     -2268.4742      2369.9589      5079.1698     -8625.2005     -55.057469     -3083.6628      6934.9566     -4888.6388     -464.18647      69159.09       41.047158      41.047158      41.047158      1.0582291      345.99428     -2124.6881      750.31918    
    141000   141000         302.73336     -544.45025      3495.9675      4047.4476      6333.8799     -2286.4322      2363.1863      4972.836      -8613.4374     -51.345878     -3010.4532      6941.7983     -4889.0164     -462.21709      69453.757      41.105372      41.105372      41.105372      1.0537394     -801.62724     -1104.8831      273.15964    
    142000   142000         294.45038     -2473.9279      1399.4249      3892.6072      6160.5809     -2267.9738      2379.0388      4891.0667     -8572.4247     -53.792171     -2969.3474      6942.6209     -4885.1359     -464.56944      69102.077      41.035875      41.035875      41.035875      1.0591022     -2859.1985     -2902.927      -1659.6582    
    143000   143000         301.23483      17.223488      4115.1712      4097.8705      6302.5271     -2204.6566      2403.7863      4968.5927     -8544.7371     -50.373643     -3039.9354      6944.1439     -4886.1335     -466.0963       68875.71       40.991017      40.991017      40.991017      1.062583       110.97342      345.67569     -404.97865    
    144000   144000         296.03917     -103.07019      3821.4533      3925.4824      6193.8221     -2268.3397      2263.7684      4931.2669     -8467.615      -50.540994     -2998.3366      6941.0898     -4887.9722     -463.86959      69206.334      41.056502      41.056502      41.056502      1.0575067     -455.1101       295.42243     -149.52288    
    145000   145000         302.59159      999.30723      5110.3158      4107.3163      6330.9138     -2223.5976      2277.4803      5075.7149     -8547.2313     -52.014549     -3030.7821      6939.1292     -4885.894      -466.46162      68821.768      40.980313      40.980313      40.980313      1.0634159     -472.20122      2486.0628      984.06012    
    146000   146000         304.47088     -304.76758      3867.3294      4173.5119      6370.2329     -2196.721       2388.7628      4855.9363     -8496.902      -53.746516     -2954.0614      6946.3899     -4883.1001     -466.02161      68886.749      40.993207      40.993207      40.993207      1.0624127     -939.27697      156.25998     -131.28576    
    147000   147000         301.09579      248.43644      4316.1403      4064.12        6299.6182     -2235.4982      2275.6878      4911.4554     -8499.6532     -52.096175     -2932.3949      6947.9069     -4886.404      -461.52742      69557.543      41.125836      41.125836      41.125836      1.0521671     -530.78346      1753.4645     -477.37173    
    148000   148000         300.19761      1271.2289      5360.0142      4085.8341      6280.8261     -2194.992       2325.1456      4892.082      -8487.9035     -51.507052     -2956.8624      6968.4815     -4884.4283     -467.10074      68727.602      40.961614      40.961614      40.961614      1.0648729      216.10112      1342.5899      2254.9956    
    149000   149000         298.69332      857.64374      4907.5407      4047.6672      6249.3529     -2201.6857      2322.1654      4927.0759     -8482.4744     -53.458139     -2990.0165      6960.0769     -4885.0548     -466.97105      68746.689      40.965406      40.965406      40.965406      1.0645772      1951.652       636.58918     -15.30993     
    150000   150000         302.47371     -264.45774      3867.7732      4134.7993      6328.4475     -2193.6482      2365.4059      4954.0616     -8568.4015     -51.271254     -2970.7237      6956.777      -4879.4962     -463.68191      69234.346      41.062041      41.062041      41.062041      1.0570788     -247.65997     -116.51225     -429.20099    
    151000   151000         298.48178     -925.44321      3110.8327      4052.1048      6244.9271     -2192.8222      2323.6085      4947.5281     -8551.0653     -53.211732     -2946.2453      6963.3122     -4876.7487     -460.3119       69741.22       41.162004      41.162004      41.162004      1.049396      -371.39719     -1396.9437     -1007.9887    
    152000   152000         291.7718       1707.2808      5637.9975      3912.3903      6104.5389     -2192.1486      2293.4606      4973.5819     -8525.6759     -53.494309     -2959.9673      6960.9795     -4881.0331     -463.2129       69304.446      41.075895      41.075895      41.075895      1.0560096      1220.0826      1867.3444      2034.4155    
    153000   153000         303.73516     -152.58266      4038.654       4192.5625      6354.8399     -2162.2774      2340.8453      4908.6272     -8490.9453     -52.451639     -2947.3365      6962.2897     -4883.3062     -464.15191      69164.24       41.048177      41.048177      41.048177      1.0581503      333.18634      161.08435     -952.01868    
    154000   154000         302.98805      234.84754      4233.4014      3995.2452      6339.2086     -2343.9634      2271.0387      4862.0427     -8526.8329     -53.616417     -2970.3333      6959.8699     -4886.132      -461.68084      69534.43       41.121281      41.121281      41.121281      1.0525169      1690.37        458.5216      -1444.349     
    155000   155000         298.29754      367.21506      4522.749       4152.4714      6241.0724     -2088.601       2406.8449      4959.5678     -8517.3369     -55.5756       -2950.8663      6952.345      -4883.5798     -464.31276      69140.278      41.043436      41.043436      41.043436      1.058517       1576.2153      135.10008     -609.67023    
    156000   156000         302.48895     -1143.5265      2840.2356      3990.5843      6328.7663     -2338.182       2317.5741      4884.4347     -8520.9587     -52.527113     -3024.0597      6942.2151     -4884.8603     -465.40854      68977.492      41.011199      41.011199      41.011199      1.0610151     -2078.8344     -1094.3526     -257.39248    
    157000   157000         298.85716     -195.33594      3763.2533      3959.64        6252.781      -2293.141       2292.6605      4870.1181     -8451.2156     -52.902314     -3014.137       6950.0495     -4887.7143     -465.68017      68937.257      41.003223      41.003223      41.003223      1.0616343     -1237.3983      137.26953      514.12097    
    158000   158000         302.54159      1006.1357      5069.9244      4054.762       6329.8676     -2275.1056      2350.0978      4961.7202     -8586.6353     -54.035489     -2989.7834      6929.7545     -4886.2238     -464.02212      69183.585      41.052003      41.052003      41.052003      1.0578544      596.37142      393.09689      2028.9388    
    159000   159000         302.61118      106.88232      4040.4549      3932.7209      6331.3237     -2398.6028      2268.7057      4890.5819     -8565.905      -54.226524     -2998.7213      6950.0757     -4889.1133     -464.48401      69114.788      41.038391      41.038391      41.038391      1.0589074      724.21984     -1822.1457      1418.5728    
    160000   160000         298.66085     -545.60602      3480.7729      4028.9631      6248.6736     -2219.7105      2362.9207      4871.7254     -8500.3766     -51.003942     -2963.0924      6947.8194     -4887.7032     -465.97815      68893.173      40.994481      40.994481      40.994481      1.0623137     -422.00602     -1592.4027      377.59062    
    161000   161000         299.96445      99.436337      4016.3387      3916.2538      6275.948      -2359.6942      2315.0547      4849.7035     -8529.1405     -47.674182     -3005.7779      6945.5323     -4887.3922     -465.15145      69015.615      41.018753      41.018753      41.018753      1.060429       856.55154     -325.66018     -232.58235    
    162000   162000         303.15123      631.57574      4685.8053      4050.9235      6342.6227     -2291.6992      2297.3091      4963.9837     -8544.4177     -52.118218     -3016.185       6947.7119     -4887.9829     -465.74715      68927.343      41.001258      41.001258      41.001258      1.061787      -11.656782      514.55507      1391.8289    
    163000   163000         294.74044      408.66652      4375.763       3962.8107      6166.6496     -2203.8389      2370.0072      4965.6552     -8565.6467     -55.179511     -2985.1998      6951.2732     -4884.7484     -463.32612      69287.511      41.072549      41.072549      41.072549      1.0562677      797.65301      1021.6333     -593.28674    
    164000   164000         297.79185     -556.44341      3406.9428      3969.5472      6230.4922     -2260.945       2342.1132      4971.5608     -8583.5995     -54.141072     -2993.7694      6943.1096     -4886.2185     -463.05813      69327.61       41.080471      41.080471      41.080471      1.0556567     -283.59244     -828.59721     -557.14059    
    165000   165000         302.76987     -251.26031      3913.1161      4166.1847      6334.6437     -2168.459       2414.383       4990.2597     -8546.9355     -54.669761     -3032.4147      6946.6598     -4885.7414     -464.83984      69061.881      41.027917      41.027917      41.027917      1.0597186     -1599.3236      433.15705      412.38559    
    166000   166000         296.17305      462.56801      4458.7331      3992.446       6196.6232     -2204.1772      2372.2269      4910.8957     -8506.5493     -53.914121     -2987.3489      6943.5231     -4883.0105     -464.45087      69119.72       41.039367      41.039367      41.039367      1.0588318      970.62058      1750.2107     -1333.1272    
    167000   167000         300.93234     -758.2687       3307.8096      4071.6697      6296.1985     -2224.5288      2383.9338      4842.8066     -8483.5818     -50.450857     -2970.9472      6939.7285     -4886.0178     -464.75808      69074.031      41.030323      41.030323      41.030323      1.0595322     -1619.8338     -448.89719     -206.07509    
    168000   168000         297.97604     -819.40811      3160.1853      3985.1879      6234.3457     -2249.1578      2359.3755      4831.5711     -8501.808      -49.929613     -2950.3535      6943.2585     -4881.2718     -465.0103       69036.564      41.022903      41.022903      41.022903      1.0601072     -2109.5478      715.69812     -1064.3746    
    169000   169000         300.41493      443.56454      4507.1958      4062.3616      6285.373      -2223.0114      2353.1617      4993.6868     -8602.4026     -51.694247     -2989.0866      6956.7627     -4883.4392     -466.84879      68764.692      40.968982      40.968982      40.968982      1.0642985     -474.18682      269.35675      1535.5237    
    170000   170000         297.83057     -664.87883      3167.789       3835.0932      6231.3023     -2396.2092      2300.8714      4906.1012     -8519.2745     -51.143911     -3086.9628      6940.39       -4886.1905     -466.4835       68818.541      40.979673      40.979673      40.979673      1.0634657      136.46945     -1573.2906     -557.81534    
    171000   171000         299.02543      443.1577       4407.3268      3961.9578      6256.3014     -2294.3436      2304.4646      4905.7155     -8526.0568     -53.005334     -2977.2768      6936.903      -4885.0878     -465.86054      68910.566      40.997931      40.997931      40.997931      1.0620455      1.1408469      132.33915      1195.9931    
    172000   172000         299.47868     -303.67177      3719.2477      4025.8091      6265.7844     -2239.9753      2387.7248      4969.9344     -8552.3027     -51.082659     -3049.5386      6944.4903     -4889.2008     -463.77202      69220.894      41.059381      41.059381      41.059381      1.0572842     -464.07915      10.819434     -457.75559    
    173000   173000         303.05855      258.58693      4426.6239      4164.8123      6340.6836     -2175.8714      2378.7423      4936.1375     -8543.6949     -55.399929     -2948.8971      6946.7739     -4889.5332     -462.41853      69423.502      41.099402      41.099402      41.099402      1.0541986      348.06486      52.296208      375.39973    
    174000   174000         294.95063      771.17819      4676.2489      3904.2783      6171.0473     -2266.769       2295.5334      4993.2798     -8552.4241     -56.130704     -3003.1999      6943.7462     -4887.5736     -467.70456      68638.873      40.943979      40.943979      40.943979      1.0662494      556.01282      2299.2292     -541.70743    
    175000   175000         302.42052      933.86432      5062.7751      4123.6635      6327.3345     -2203.671       2330.9515      4964.8875     -8549.1691     -51.406185     -2960.4121      6948.217      -4886.7396     -465.56915      68953.695      41.006482      41.006482      41.006482      1.0613813      1466.2968      1043.149       292.14718    
    176000   176000         302.08199      135.44064      4306.5907      4169.9698      6320.2518     -2150.2819      2344.7483      5011.3331     -8529.0527     -55.774286     -2986.5679      6951.1553     -4886.1238     -464.1408       69165.894      41.048504      41.048504      41.048504      1.058125       1730.3095     -932.3284      -391.65915    
    177000   177000         300.784        896.81777      4973.5069      4061.8412      6293.0947     -2231.2535      2304.3885      4956.17       -8509.3424     -53.115926     -3005.6017      6960.0964     -4883.8484     -460.56002      69703.648      41.154611      41.154611      41.154611      1.0499617      205.58995      1870.01        614.85341    
    178000   178000         299.54997     -1472.0766      2593.7409      4076.9465      6267.276      -2190.3295      2384.2374      4975.0908     -8553.8233     -52.120535     -3029.1711      6965.0227     -4879.5654     -464.67221      69086.795      41.03285       41.03285       41.03285       1.0593364     -2044.0023     -894.29846     -1477.9292    
    179000   179000         306.16238      642.90225      5020.4864      4373.4248      6405.623      -2032.1982      2369.8493      5078.4842     -8482.5244     -54.867699     -3027.7086      6965.9394     -4881.3704     -465.17565      69012.025      41.018042      41.018042      41.018042      1.0604842      339.3657       839.96229      749.37877    
    180000   180000         297.96243     -465.91063      3613.6701      4082.1834      6234.061      -2151.8776      2377.619       5048.6687     -8534.8769     -52.378273     -3058.6426      6950.3534     -4882.6208     -465.58432      68951.449      41.006037      41.006037      41.006037      1.0614158     -262.20965     -168.35277     -967.16947    
    181000   181000         293.66619      15.750742      3881.7703      3865.8979      6144.1738     -2278.2759      2323.6379      4882.503      -8514.6367     -56.552324     -2978.4266      6948.1746     -4882.9757     -464.59821      69097.798      41.035028      41.035028      41.035028      1.0591678     -356.40579      509.55253     -105.89452    
    182000   182000         303.83074     -899.11626      3220.3897      4132.2268      6356.8395     -2224.6127      2392.087       4842.5095     -8506.7066     -53.515307     -2976.8582      6956.3516     -4878.4808     -461.65359      69538.534      41.12209       41.12209       41.12209       1.0524547     -1143.8449     -722.52022     -830.98368    
    183000   183000         302.58582      114.16519      4300.6243      4185.4707      6330.7931     -2145.3224      2406.3705      4863.6925     -8480.0184     -55.461282     -2946.4732      6949.5477     -4882.9801     -464.16644      69162.074      41.047748      41.047748      41.047748      1.0581834      193.34437     -240.15556      389.30676    
[...]
   1952000   1952000        301.43182      1085.8155      5157.8201      4065.2331      6306.6487     -2241.4156      2345.7716      4942.0415     -8553.327      -52.621279     -2972.3589      6940.074      -4890.9955     -465.28351      68996.027      41.014872      41.014872      41.014872      1.0607301      3139.4221     -604.35071      722.37523    
   1953000   1953000        294.01127     -539.47829      3348.8173      3893.9199      6151.3936     -2257.4737      2375.5673      4937.9518     -8534.4956     -54.385891     -3019.7423      6926.1908     -4888.5598     -463.35445      69283.274      41.071711      41.071711      41.071711      1.0563323      567.12685     -261.11698     -1924.4447    
   1954000   1954000        301.06702      907.18401      5002.8611      4088.319       6299.0162     -2210.6971      2345.446       5004.2349     -8589.8459     -50.900582     -2962.4391      6930.4075     -4887.6        -464.41831      69124.565      41.040326      41.040326      41.040326      1.0587576      1574.2876      1020.5732      126.69118    
   1955000   1955000        301.13894     -487.64553      3614.0768      4104.1508      6300.521      -2196.3702      2347.6611      5006.9458     -8519.9712     -53.833314     -3010.7511      6924.007      -4890.4285     -465.86511      68909.89       40.997797      40.997797      40.997797      1.062056      -765.25169     -35.254273     -662.43062    
   1956000   1956000        295.05547      586.08618      4535.7268      3944.5389      6173.2407     -2228.7019      2323.1525      4874.6461     -8481.1116     -50.821196     -2948.953       6941.4289     -4887.0435     -464.14489      69165.285      41.048383      41.048383      41.048383      1.0581343      637.28171      717.11278      403.86407    
   1957000   1957000        300.80517      493.0601       4655.2668      4159.3842      6293.5377     -2134.1535      2357.773       4998.8218     -8503.3242     -49.503484     -2986.2703      6935.5976     -4887.2479     -465.52028      68960.934      41.007917      41.007917      41.007917      1.0612698      283.60173      1485.1116     -289.53302    
   1958000   1958000        297.7995      -392.27725      3591.574       3986.0777      6230.6522     -2244.5744      2379.8984      4957.276      -8561.2616     -51.42661      -3029.1607      6945.5478     -4885.4478     -465.5428       68957.599      41.007256      41.007256      41.007256      1.0613212     -1086.0418      143.39686     -234.18679    
   1959000   1959000        301.94741     -1873.2488      2208.5941      4080.822       6317.436      -2236.6139      2371.5766      4972.7848     -8537.8485     -54.398371     -3055.4369      6950.8312     -4884.1228     -468.44043      68531.048      40.922528      40.922528      40.922528      1.067927      -1535.0587     -2087.7419     -1996.9457    
   1960000   1960000        302.21115     -256.81067      3790.139       4048.667       6322.9541     -2274.2871      2324.745       4990.2303     -8527.1771     -53.413005     -3059.7577      6940.8702     -4889.7847     -465.07516      69026.937      41.020996      41.020996      41.020996      1.0602551     -1432.0238      675.36526     -13.773489    
   1961000   1961000        301.62897     -861.30594      3104.4536      3970.1924      6310.7734     -2340.581       2323.9349      4940.3845     -8564.4084     -51.494176     -3047.0781      6945.7987     -4887.7185     -465.78792      68921.31       41.000062      41.000062      41.000062      1.06188       -656.56599     -825.8159      -1101.5359    
   1962000   1962000        300.45984     -343.06552      3756.6591      4098.8281      6286.3127     -2187.4847      2399.5529      4882.2588     -8492.0699     -52.643659     -2983.2998      6944.6247     -4885.9077     -469.41192      68389.217      40.894278      40.894278      40.894278      1.0701418     -1774.3303      1515.3872     -770.25346    
   1963000   1963000        306.32488      33.427163      4285.6134      4252.1966      6409.0227     -2156.8261      2337.5491      5050.7972     -8537.7617     -50.829302     -3025.76        6953.7364     -4884.5578     -468.33014      68547.186      40.92574       40.92574       40.92574       1.0676756      448.44602     -527.25473      179.09021    
   1964000   1964000        296.60513     -52.197438      3974.3928      4026.9095      6205.6632     -2178.7537      2395.0309      5021.8774     -8550.768      -56.48199      -3052.7728      6951.0982     -4886.7375     -465.33928      68987.758      41.013233      41.013233      41.013233      1.0608572      211.0731      -529.78937      162.12396    
   1965000   1965000        298.17638     -1460.7603      2437.0516      3894.1069      6238.5374     -2344.4305      2328.3239      4913.0499     -8517.7839     -53.830546     -3063.4432      6937.2801     -4888.0268     -469.37565      68394.502      40.895331      40.895331      40.895331      1.0700591      0.80594433    -1499.9879     -2883.099     
   1966000   1966000        300.05907      2551.7241      6617.3502      4073.3015      6277.9276     -2204.6261      2345.3372      5006.3019     -8537.0771     -50.465132     -3019.3315      6938.595      -4887.9866     -469.59767      68362.165      40.888885      40.888885      40.888885      1.0705653      3751.7068      1605.2979      2298.1676    
   1967000   1967000        303.2367       1734.1641      5751.8149      4011.3763      6344.411      -2333.0347      2290.6005      4980.4484     -8587.3621     -53.021404     -3014.2898      6940.2129     -4889.6233     -466.49728      68816.508      40.979269      40.979269      40.979269      1.0634971      1288.5104      1627.0028      2286.9792    
   1968000   1968000        303.67138      437.92824      4398.2398      3957.93        6353.5055     -2395.5755      2305.6834      4848.1327     -8547.0795     -53.587664     -3015.1294      6956.6117     -4890.2068     -465.65282      68941.307      41.004026      41.004026      41.004026      1.061572       430.7343       231.83333      651.21709    
   1969000   1969000        297.45346     -319.0425       3653.6841      3972.9924      6223.4121     -2250.4197      2464.2609      4877.7694     -8541.9522     -54.364462     -3053.5167      6942.9538     -4885.5705     -467.79535      68625.551      40.94133       40.94133       40.94133       1.0664564      222.32408     -628.14947     -551.30212    
   1970000   1970000        303.66787      260.39802      4371.6462      4110.4983      6353.4319     -2242.9336      2350.9326      4925.6792     -8544.0806     -53.329514     -2980.9013      6948.2844     -4889.5184     -466.84083      68765.865      40.969214      40.969214      40.969214      1.0642804      325.09363      897.04046     -440.94003    
   1971000   1971000        306.15569      48.976993      4275.2322      4225.9835      6405.483      -2179.4995      2370.2085      4989.3691     -8538.5519     -53.264586     -2980.758       6927.5895     -4894.0921     -465.60237      68948.776      41.005507      41.005507      41.005507      1.061457       384.0309      -264.82121      27.721292    
   1972000   1972000        300.22034     -71.432936      3936.8334      4008.4956      6281.3018     -2272.8062      2364.4148      4926.9826     -8545.6352     -53.254889     -3012.9666      6938.2474     -4890.5944     -466.6874       68788.473      40.973704      40.973704      40.973704      1.0639306      4.7052458     -821.05144      602.04739    
   1973000   1973000        298.30401      987.86014      4927.5489      3933.0765      6241.2077     -2308.1312      2372.0801      4847.3062     -8529.7835     -54.728686     -2987.2518      6936.2022     -4891.9557     -465.07218      69027.38       41.021084      41.021084      41.021084      1.0602483      428.30854      2047.6151      487.65675    
   1974000   1974000        301.56007     -1633.6523      2392.8105      4049.3802      6309.332      -2259.9517      2380.7884      4900.5877     -8524.6907     -52.074833     -3009.0512      6933.5262     -4889.0372     -461.70815      69530.316      41.12047       41.12047       41.12047       1.0525791     -2841.4473     -1211.7858     -847.72383    
   1975000   1975000        304.08058     -267.3799       3884.3628      4154.0543      6362.0668     -2208.0125      2333.4434      5021.324      -8552.6923     -55.772988     -3005.3493      6943.5741     -4892.5394     -464.17221      69161.214      41.047578      41.047578      41.047578      1.0581966      204.6378      -530.42611     -476.35139    
   1976000   1976000        300.55982     -667.19862      3280.1832      3953.5314      6288.4045     -2334.8731      2360.3323      4901.3355     -8608.1263     -53.828055     -2981.4862      6935.618      -4888.7183     -463.90924      69200.418      41.055332      41.055332      41.055332      1.0575971     -792.75378     -470.35481     -738.48729    
   1977000   1977000        308.10784     -1306.4706      2849.3815      4164.1602      6446.3264     -2282.1662      2395.989       4912.2039     -8565.5536     -49.020001     -3024.9655      6938.7223     -4889.5423     -465.22671      69004.451      41.016541      41.016541      41.016541      1.0606006     -2104.4829     -590.63903     -1224.29      
   1978000   1978000        302.84504      23.195631      4077.3651      4054.002       6336.2164     -2282.2145      2346.8405      4911.0223     -8522.8534     -51.464849     -3013.2165      6937.0934     -4889.6359     -464.82772      69063.681      41.028273      41.028273      41.028273      1.059691       402.06888     -624.07205      291.59007    
   1979000   1979000        297.62934      392.78128      4349.758       3955.6226      6227.0921     -2271.4695      2312.1342      4926.7609     -8560.6969     -51.865879     -2943.903       6939.1166     -4893.0154     -466.57657      68804.812      40.976948      40.976948      40.976948      1.0636779      90.444146      431.59337      656.30633    
   1980000   1980000        297.7554      -958.47952      2963.6435      3919.1549      6229.7295     -2310.5746      2377.4514      4905.4433     -8563.1166     -51.984366     -3037.4207      6948.3299     -4889.2776     -469.6395       68356.077      40.887671      40.887671      40.887671      1.0706606     -1550.317      -523.77192     -801.34963    
   1981000   1981000        300.52807     -733.05023      3320.5296      4050.8299      6287.7402     -2236.9104      2357.1093      4933.2532     -8468.7219     -52.658503     -3050.7486      6939.9576     -4895.1014     -469.9481       68311.189      40.878719      40.878719      40.878719      1.0713642     -216.52263     -261.71208     -1720.916     
   1982000   1982000        304.83409      58.24928       4074.5182      4015.9911      6377.8321     -2361.841       2349.4061      4849.08       -8543.0902     -54.101205     -3004.9784      6931.3334     -4889.4906     -465.9633       68895.369      40.994917      40.994917      40.994917      1.0622798      198.42422      1098.4504     -1122.1268    
   1983000   1983000        301.20669      120.95985      4089.1461      3967.0462      6301.9385     -2334.8922      2351.5801      4869.871      -8521.0086     -52.491589     -3031.6964      6937.2227     -4888.3695     -463.81398      69214.631      41.058143      41.058143      41.058143      1.0573799      1332.635      -157.55706     -812.1984     
   1984000   1984000        303.59872      857.97446      4958.7452      4093.4517      6351.9853     -2258.5336      2393.6202      4886.4619     -8509.2271     -51.260197     -3023.1698      6936.9476     -4891.9062     -464.22504      69153.343      41.046021      41.046021      41.046021      1.058317       1365.2441     -114.59572      1323.275     
   1985000   1985000        299.41281      362.82707      4440.1867      4073.6709      6264.4064     -2190.7355      2359.7867      5013.1908     -8520.6636     -53.53514      -3031.8633      6934.6893     -4892.3403     -463.47326      69265.514      41.068202      41.068202      41.068202      1.0566031      844.2084      -204.90047      449.17329    
   1986000   1986000        300.85722      191.29256      4202.9847      4011.0083      6294.6268     -2283.6184      2383.4011      4881.0182     -8561.8264     -52.897324     -2995.696       6950.0948     -4887.7128     -466.51751      68813.524      40.978677      40.978677      40.978677      1.0635433      104.34476     -480.23468      949.76759    
   1987000   1987000        303.3789       549.61569      4577.9941      4025.5422      6347.3861     -2321.8439      2337.1032      4933.352      -8581.8267     -51.676056     -3006.3795      6941.7543     -4894.1711     -465.78155      68922.252      41.000248      41.000248      41.000248      1.0618655      1093.363       923.72433     -368.24029    
   1988000   1988000        302.48559      70.366469      4066.6473      3995.8201      6328.6959     -2332.8758      2335.8732      4913.3982     -8552.859      -51.849308     -3013.8767      6927.1636     -4890.7258     -465.14008      69017.303      41.019087      41.019087      41.019087      1.0604031     -176.22176     -103.71832      491.03948    
   1989000   1989000        295.96761     -743.79452      3377.3322      4128.2203      6192.3248     -2064.1044      2400.73        5046.7409     -8505.5648     -52.952322     -3003.4418      6942.1483     -4891.7648     -463.76223      69222.355      41.05967       41.05967       41.05967       1.0572619     -637.31124     -1675.7731      81.700811    
   1990000   1990000        302.17496     -1064.0626      2878.7822      3952.3171      6322.1968     -2369.8797      2300.6538      4850.9173     -8499.9108     -51.663489     -3006.99        6930.0144     -4892.901      -464.05416      69178.808      41.051058      41.051058      41.051058      1.0579274     -629.87356     -2308.6359     -253.67846    
   1991000   1991000        300.1038      -108.35297      3986.9816      4095.4725      6278.8634     -2183.3909      2362.527       5034.3297     -8541.6422     -55.556946     -3012.0379      6921.8655     -4892.8761     -467.58979      68655.72       40.947329      40.947329      40.947329      1.0659878     -1890.6851      1716.1885     -150.56228    
   1992000   1992000        297.30116      948.21682      5005.7811      4049.6082      6220.2257     -2170.6175      2432.2134      4924.9737     -8526.7925     -50.857614     -2984.568       6926.4634     -4892.0498     -464.28949      69143.743      41.044121      41.044121      41.044121      1.058464       531.93721      1325.3749      987.33831    
   1993000   1993000        299.48651      361.62297      4381.9999      4017.0476      6265.9482     -2248.9006      2331.6086      4955.4227     -8496.7706     -55.928063     -3014.1923      6924.109      -4893.1499     -463.9141       69199.693      41.055189      41.055189      41.055189      1.0576081     -55.554084      1437.454      -297.03097    
   1994000   1994000        298.51051     -505.46213      3509.8632      4017.5964      6245.5281     -2227.9317      2360.5662      4898.6722     -8449.6962     -55.658647     -3035.9388      6940.1947     -4886.0712     -466.09094      68876.502      40.991174      40.991174      40.991174      1.0625708     -1099.8927      1081.4556     -1497.9492    
   1995000   1995000        303.06683      331.9528       4348.2654      4015.0833      6340.8568     -2325.7734      2243.8077      5000.4203     -8551.2485     -49.335189     -2985.2262      6913.0258     -4897.2172     -466.4578       68822.331      40.980425      40.980425      40.980425      1.0634072      976.09979      972.02414     -952.26552    
   1996000   1996000        297.7646      -244.12123      3734.9661      3979.6782      6229.922      -2250.2439      2369.2547      4962.556      -8522.6365     -54.57532      -3036.4001      6925.2704     -4893.7132     -467.0547       68734.376      40.96296       40.96296       40.96296       1.0647679     -523.58235      86.671582     -295.45292    
   1997000   1997000        299.26665     -320.77155      3638.0548      3957.4713      6261.3483     -2303.877       2352.1318      4919.0297     -8516.433      -54.866478     -3033.3498      6920.8238     -4891.213      -470.17133      68278.757      40.872249      40.872249      40.872249      1.0718731     -344.2121       1130.4688     -1748.5714    
   1998000   1998000        303.27128      1000.5187      5155.398       4157.8836      6345.1345     -2187.2509      2426.7726      4867.0913     -8458.1007     -51.311694     -3005.4134      6928.116      -4894.405      -469.59524      68362.52       40.888956      40.888956      40.888956      1.0705597      2029.5925      1061.0883     -89.124736    
   1999000   1999000        302.8683       951.98453      4999.7709      4044.2114      6336.7032     -2292.4918      2326.0735      4899.3496     -8522.1943     -51.419895     -2964.3548      6916.0172     -4895.9632     -466.43354      68825.912      40.981136      40.981136      40.981136      1.0633518      945.96491     -533.48165      2443.4703    
   2000000   2000000        305.46823      865.1017       5056.7442      4188.3745      6391.0996     -2202.7251      2347.7263      4946.4439     -8521.5255     -53.124684     -2952.5529      6922.599      -4892.2912     -466.42323      68827.433      40.981438      40.981438      40.981438      1.0633283     -1451.798       2612.3076      1434.7955    
Loop time of 3768.97 on 1 procs for 2000000 steps with 7020 atoms

Performance: 45.848 ns/day, 0.523 hours/ns, 530.649 timesteps/s, 3.725 Matom-step/s
100.0% CPU use with 1 MPI tasks x 1 OpenMP threads

MPI task timing breakdown:
Section |  min time  |  avg time  |  max time  |%varavg| %total
---------------------------------------------------------------
Pair    | 503.94     | 503.94     | 503.94     |   0.0 | 13.37
Bond    | 429.15     | 429.15     | 429.15     |   0.0 | 11.39
Kspace  | 1807.2     | 1807.2     | 1807.2     |   0.0 | 47.95
Neigh   | 289.83     | 289.83     | 289.83     |   0.0 |  7.69
Comm    | 50.588     | 50.588     | 50.588     |   0.0 |  1.34
Output  | 9.0665     | 9.0665     | 9.0665     |   0.0 |  0.24
Modify  | 600.89     | 600.89     | 600.89     |   0.0 | 15.94
Other   |            | 78.34      |            |       |  2.08

Nlocal:           7020 ave        7020 max        7020 min
Histogram: 1 0 0 0 0 0 0 0 0 0
Nghost:          19631 ave       19631 max       19631 min
Histogram: 1 0 0 0 0 0 0 0 0 0
Neighs:              0 ave           0 max           0 min
Histogram: 1 0 0 0 0 0 0 0 0 0
FullNghs:  4.55671e+06 ave 4.55671e+06 max 4.55671e+06 min
Histogram: 1 0 0 0 0 0 0 0 0 0

Total # of neighbors = 4556706
Ave neighs/atom = 649.10342
Ave special neighs/atom = 5.7008547
Neighbor list builds = 59505
Dangerous builds = 0

# --- Cleanup ---
unfix npt_fix
undump dump_npt

# --- Write Output ---
write_dump all custom npt_ext_last.dump id type mol x y z xu yu zu vx vy vz modify sort id
write_data /home/alexzhao/PolyJarvis/data/PEG3/lammps/equil/npt_production_ext/npt_ext_out.data
System init for write_data ...
PPPM Kokkos initialization ...
  using 12-bit tables for long-range coulomb
  G vector (1/distance) = 0.30317895
  grid = 30 30 30
  stencil order = 5
  estimated absolute RMS force accuracy = 0.00030405438
  estimated relative force accuracy = 9.1565074e-07
  using double precision cuFFT
  3d grid and FFT values/proc = 50653 27000
Generated 10 of 10 mixed pair_coeff terms from sixthpower/sixthpower mixing rule

print "STAGE COMPLETE: NPT EXTENSION T=300.0->300.0K P=1.0->1.0atm steps=2000000"
STAGE COMPLETE: NPT EXTENSION T=300.0->300.0K P=1.0->1.0atm steps=2000000
quit
