units real
atom_style full
boundary p p p

# --- Force Field Styles ---
pair_style lj/class2/coul/long 9.5 9.5
kspace_style pppm 1e-6
dielectric 1.000000
bond_style class2
angle_style class2
dihedral_style class2
improper_style class2
special_bonds lj/coul 0 0 1
pair_modify mix sixthpower tail yes
neighbor 2.0 bin
neigh_modify delay 0 every 1 check yes
neigh_modify one 4000
# KOKKOS: package loaded via -pk kokkos on the command line

read_data /home/alexzhao/PolyJarvis/data/PVC4/lammps/equil/minimize/minimize_out.data
Reading data file ...
  orthogonal box = (0 0 0) to (48.385495 48.385495 48.385495)
  1 by 1 by 1 MPI processor grid
  reading atoms ...
  3620 atoms
  reading velocities ...
  3620 velocities
  scanning bonds ...
  4 = max bonds/atom
  scanning angles ...
  12 = max angles/atom
  scanning dihedrals ...
  24 = max dihedrals/atom
  scanning impropers ...
  10 = max impropers/atom
  orthogonal box = (0 0 0) to (48.385495 48.385495 48.385495)
  1 by 1 by 1 MPI processor grid
  reading bonds ...
  3610 bonds
  reading angles ...
  7200 angles
  reading dihedrals ...
  10710 dihedrals
  reading impropers ...
  4800 impropers
Finding 1-2 1-3 1-4 neighbors ...
  special bond factors lj:    0        0        1       
  special bond factors coul:  0        0        1       
     4 = max # of 1-2 neighbors
     6 = max # of 1-3 neighbors
    10 = max # of special neighbors
  special bonds CPU = 0.002 seconds
  read_data CPU = 0.223 seconds
include /home/alexzhao/PolyJarvis/data/PVC4/lammps/equil/emc_build.params
# LAMMPS parameters created by EMC v9.4.4, build Jul 31 2025 20:33:44

# Variables

variable	seed		index	472913
variable	ntotal		index	3620
variable	fshape		index	1
variable	output		index	emc_build
variable	field		index	pcff/pcff
variable	location1	index	~/emc/field/
variable	nav		index	0.6022141179
variable	temperature	index	300
variable	radius		index	5
variable	nrelax		index	100
variable	weight_nonbond	index	0.0001
variable	weight_bond	index	0.0001
variable	weight_focus	index	1
variable	cutoff		index	9.5
variable	charge_cutoff	index	9.5
variable	kappa		index	4
variable	density1	index	0.55
variable	lprevious	index	0
variable	lphase		index	48.3854950346
variable	f_poly		index	10
variable	chem_repeat	index	*CC(Cl)*
variable	chem_cap	index	*[H]
variable	lg_repeat	index	6
variable	lg_cap		index	1
variable	norm_poly	index	100
variable	l_poly		index	362
variable	mg_repeat	index	50.48806
variable	mg_cap		index	1.00797
variable	m_poly		index	3031.29954
variable	n_poly		index	10
variable	mtotal		index	37519.6854
variable	nphase1		index	3620
variable	mphase1		index	37519.6854
variable	vphase1		index	113277.998291
variable	lbox		index	48.3854950346
variable	lphase1		index	48.3854950346
variable	lxx		index	48.3854950346
variable	lyy		index	48.3854950346
variable	lzz		index	48.3854950346
variable	lzy		index	0
variable	lzx		index	0
variable	lyx		index	0
variable	vtotal		index	113277.998291
variable	nl_poly		index	10

# Types

variable	type_c		index	1
variable	type_c1		index	2
variable	type_cl		index	3
variable	type_hc		index	4

variable	type_bond_c_c	index	1
variable	type_bond_c_c1	index	2
variable	type_bond_c_cl	index	3
variable	type_bond_c_hc	index	4
variable	type_bond_c1_cl	index	5
variable	type_bond_c1_hc	index	6

variable	type_angle_c_c_c1 index	1
variable	type_angle_c_c_cl index	2
variable	type_angle_c_c_hc index	3
variable	type_angle_c_c1_c index	4
variable	type_angle_c_c1_cl index	5
variable	type_angle_c_c1_hc index	6
variable	type_angle_c1_c_c1 index	7
variable	type_angle_c1_c_hc index	8
variable	type_angle_cl_c_hc index	9
variable	type_angle_cl_c1_hc index	10
variable	type_angle_hc_c_hc index	11

# Clusters

variable	n0_poly		index	1
variable	n1_poly		index	10
variable	nl_poly		index	10

# Flags

variable	flag_charged	index	1

# Masses

mass		1    12.01115  # c
mass		2    12.01115  # c1
mass		3    35.45300  # cl
mass		4     1.00797  # hc

# Potentials

pair_modify	mix sixthpower tail yes
special_bonds	lj/coul 0 0 1

# Pair Coeffs

pair_coeff	 1  1    0.05400    4.01000  # c,c
pair_coeff	 2  2    0.05400    4.01000  # c1,c1
pair_coeff	 3  3    0.22470    3.92000  # cl,cl
pair_coeff	 4  4    0.02000    2.99500  # hc,hc

# Bond Coeffs

bond_coeff	1    1.53000  299.67000 -501.77000  679.81000  # c,c
bond_coeff	2    1.53000  299.67000 -501.77000  679.81000  # c,c1
bond_coeff	3    1.79000  194.31900    0.00000    0.00000  # c,cl
bond_coeff	4    1.10100  345.00000 -691.89000  844.60000  # c,hc
bond_coeff	5    1.79000  194.31900    0.00000    0.00000  # c1,cl
bond_coeff	6    1.10100  345.00000 -691.89000  844.60000  # c1,hc

# Angle Coeffs

angle_coeff	 1  112.67000   39.51600   -7.44300   -9.55830  # c,c,c1
angle_coeff	 2  107.00000   61.17450    0.00000    0.00000  # c,c,cl
angle_coeff	 3  110.77000   41.45300  -10.60400    5.12900  # c,c,hc
angle_coeff	 4  112.67000   39.51600   -7.44300   -9.55830  # c,c1,c
angle_coeff	 5  107.00000   61.17450    0.00000    0.00000  # c,c1,cl
angle_coeff	 6  110.77000   41.45300  -10.60400    5.12900  # c,c1,hc
angle_coeff	 7  112.67000   39.51600   -7.44300   -9.55830  # c1,c,c1
angle_coeff	 8  110.77000   41.45300  -10.60400    5.12900  # c1,c,hc
angle_coeff	 9  107.99680   51.09870    0.00000    0.00000  # cl,c,hc
angle_coeff	10  107.99680   51.09870    0.00000    0.00000  # cl,c1,hc
angle_coeff	11  107.66000   39.64100  -12.92100   -2.43180  # hc,c,hc

# BondBond Coeffs

angle_coeff	 1 bb    0.00000    1.53000    1.53000  # c,c,c1
angle_coeff	 2 bb    0.00000    1.53000    1.79000  # c,c,cl
angle_coeff	 3 bb    3.38720    1.53000    1.10100  # c,c,hc
angle_coeff	 4 bb    0.00000    1.53000    1.53000  # c,c1,c
angle_coeff	 5 bb    0.00000    1.53000    1.79000  # c,c1,cl
angle_coeff	 6 bb    3.38720    1.53000    1.10100  # c,c1,hc
angle_coeff	 7 bb    0.00000    1.53000    1.53000  # c1,c,c1
angle_coeff	 8 bb    3.38720    1.53000    1.10100  # c1,c,hc
angle_coeff	 9 bb    0.00000    1.79000    1.10100  # cl,c,hc
angle_coeff	10 bb    0.00000    1.79000    1.10100  # cl,c1,hc
angle_coeff	11 bb    5.33160    1.10100    1.10100  # hc,c,hc

# BondAngle Coeffs

angle_coeff	 1 ba    8.01600    8.01600    1.53000    1.53000  # c,c,c1
angle_coeff	 2 ba    0.00000    0.00000    1.53000    1.79000  # c,c,cl
angle_coeff	 3 ba   20.75400   11.42100    1.53000    1.10100  # c,c,hc
angle_coeff	 4 ba    8.01600    8.01600    1.53000    1.53000  # c,c1,c
angle_coeff	 5 ba    0.00000    0.00000    1.53000    1.79000  # c,c1,cl
angle_coeff	 6 ba   20.75400   11.42100    1.53000    1.10100  # c,c1,hc
angle_coeff	 7 ba    8.01600    8.01600    1.53000    1.53000  # c1,c,c1
angle_coeff	 8 ba   20.75400   11.42100    1.53000    1.10100  # c1,c,hc
angle_coeff	 9 ba    0.00000    0.00000    1.79000    1.10100  # cl,c,hc
angle_coeff	10 ba    0.00000    0.00000    1.79000    1.10100  # cl,c1,hc
angle_coeff	11 ba   18.10300   18.10300    1.10100    1.10100  # hc,c,hc

# Dihedral Coeffs

dihedral_coeff	 1    0.00000    0.00000    0.05140    0.00000   -0.14300    0.00000  # c,c,c1,c
dihedral_coeff	 2    0.00000    0.00000    0.00000    0.00000    0.15000    0.00000  # c,c,c1,cl
dihedral_coeff	 3    0.00000    0.00000    0.03160    0.00000   -0.16810    0.00000  # c,c,c1,hc
dihedral_coeff	 4    0.00000    0.00000    0.05140    0.00000   -0.14300    0.00000  # c,c1,c,c1
dihedral_coeff	 5    0.00000    0.00000    0.03160    0.00000   -0.16810    0.00000  # c,c1,c,hc
dihedral_coeff	 6    0.00000    0.00000    0.00000    0.00000    0.15000    0.00000  # c1,c,c,cl
dihedral_coeff	 7    0.00000    0.00000    0.03160    0.00000   -0.16810    0.00000  # c1,c,c,hc
dihedral_coeff	 8    0.00000    0.00000    0.00000    0.00000    0.15000    0.00000  # c1,c,c1,cl
dihedral_coeff	 9    0.00000    0.00000    0.03160    0.00000   -0.16810    0.00000  # c1,c,c1,hc
dihedral_coeff	10    0.00000    0.00000    0.00000    0.00000   -0.10000    0.00000  # cl,c,c,hc
dihedral_coeff	11    0.00000    0.00000    0.00000    0.00000   -0.10000    0.00000  # cl,c1,c,hc
dihedral_coeff	12   -0.14320    0.00000    0.06170    0.00000   -0.10830    0.00000  # hc,c,c,hc
dihedral_coeff	13   -0.14320    0.00000    0.06170    0.00000   -0.10830    0.00000  # hc,c,c1,hc

# MiddleBondTorsion Coeffs

dihedral_coeff	 1 mbt  -17.78700   -7.18770    0.00000    1.53000  # c,c,c1,c
dihedral_coeff	 2 mbt    0.00000    0.00000    0.00000    1.53000  # c,c,c1,cl
dihedral_coeff	 3 mbt  -14.87900   -3.65810   -0.31380    1.53000  # c,c,c1,hc
dihedral_coeff	 4 mbt  -17.78700   -7.18770    0.00000    1.53000  # c,c1,c,c1
dihedral_coeff	 5 mbt  -14.87900   -3.65810   -0.31380    1.53000  # c,c1,c,hc
dihedral_coeff	 6 mbt    0.00000    0.00000    0.00000    1.53000  # c1,c,c,cl
dihedral_coeff	 7 mbt  -14.87900   -3.65810   -0.31380    1.53000  # c1,c,c,hc
dihedral_coeff	 8 mbt    0.00000    0.00000    0.00000    1.53000  # c1,c,c1,cl
dihedral_coeff	 9 mbt  -14.87900   -3.65810   -0.31380    1.53000  # c1,c,c1,hc
dihedral_coeff	10 mbt    0.00000    0.00000    0.00000    1.53000  # cl,c,c,hc
dihedral_coeff	11 mbt    0.00000    0.00000    0.00000    1.53000  # cl,c1,c,hc
dihedral_coeff	12 mbt  -14.26100   -0.53220   -0.48640    1.53000  # hc,c,c,hc
dihedral_coeff	13 mbt  -14.26100   -0.53220   -0.48640    1.53000  # hc,c,c1,hc

# EndBondTorsion Coeffs

dihedral_coeff	 1 ebt   -0.07320    0.00000    0.00000   -0.07320    0.00000    0.00000    1.53000    1.53000  # c,c,c1,c
dihedral_coeff	 2 ebt    0.00000    0.00000    0.00000    0.00000    0.00000    0.00000    1.53000    1.79000  # c,c,c1,cl
dihedral_coeff	 3 ebt    0.24860    0.24220   -0.09250    0.08140    0.05910    0.22190    1.53000    1.10100  # c,c,c1,hc
dihedral_coeff	 4 ebt   -0.07320    0.00000    0.00000   -0.07320    0.00000    0.00000    1.53000    1.53000  # c,c1,c,c1
dihedral_coeff	 5 ebt    0.24860    0.24220   -0.09250    0.08140    0.05910    0.22190    1.53000    1.10100  # c,c1,c,hc
dihedral_coeff	 6 ebt    0.00000    0.00000    0.00000    0.00000    0.00000    0.00000    1.53000    1.79000  # c1,c,c,cl
dihedral_coeff	 7 ebt    0.24860    0.24220   -0.09250    0.08140    0.05910    0.22190    1.53000    1.10100  # c1,c,c,hc
dihedral_coeff	 8 ebt    0.00000    0.00000    0.00000    0.00000    0.00000    0.00000    1.53000    1.79000  # c1,c,c1,cl
dihedral_coeff	 9 ebt    0.24860    0.24220   -0.09250    0.08140    0.05910    0.22190    1.53000    1.10100  # c1,c,c1,hc
dihedral_coeff	10 ebt    0.00000    0.00000    0.00000    0.00000    0.00000    0.00000    1.79000    1.10100  # cl,c,c,hc
dihedral_coeff	11 ebt    0.00000    0.00000    0.00000    0.00000    0.00000    0.00000    1.79000    1.10100  # cl,c1,c,hc
dihedral_coeff	12 ebt    0.21300    0.31200    0.07770    0.21300    0.31200    0.07770    1.10100    1.10100  # hc,c,c,hc
dihedral_coeff	13 ebt    0.21300    0.31200    0.07770    0.21300    0.31200    0.07770    1.10100    1.10100  # hc,c,c1,hc

# AngleTorsion Coeffs

dihedral_coeff	 1 at    0.38860   -0.31390    0.13890    0.38860   -0.31390    0.13890  112.67000  112.67000  # c,c,c1,c
dihedral_coeff	 2 at    0.00000    0.00000    0.00000    0.00000    0.00000    0.00000  112.67000  107.00000  # c,c,c1,cl
dihedral_coeff	 3 at   -0.24540    0.00000   -0.11360    0.31130    0.45160   -0.19880  112.67000  110.77000  # c,c,c1,hc
dihedral_coeff	 4 at    0.38860   -0.31390    0.13890    0.38860   -0.31390    0.13890  112.67000  112.67000  # c,c1,c,c1
dihedral_coeff	 5 at   -0.24540    0.00000   -0.11360    0.31130    0.45160   -0.19880  112.67000  110.77000  # c,c1,c,hc
dihedral_coeff	 6 at    0.00000    0.00000    0.00000    0.00000    0.00000    0.00000  112.67000  107.00000  # c1,c,c,cl
dihedral_coeff	 7 at   -0.24540    0.00000   -0.11360    0.31130    0.45160   -0.19880  112.67000  110.77000  # c1,c,c,hc
dihedral_coeff	 8 at    0.00000    0.00000    0.00000    0.00000    0.00000    0.00000  112.67000  107.00000  # c1,c,c1,cl
dihedral_coeff	 9 at   -0.24540    0.00000   -0.11360    0.31130    0.45160   -0.19880  112.67000  110.77000  # c1,c,c1,hc
dihedral_coeff	10 at    0.00000    0.00000    0.00000    0.00000    0.00000    0.00000  107.00000  110.77000  # cl,c,c,hc
dihedral_coeff	11 at    0.00000    0.00000    0.00000    0.00000    0.00000    0.00000  107.00000  110.77000  # cl,c1,c,hc
dihedral_coeff	12 at   -0.80850    0.55690   -0.24660   -0.80850    0.55690   -0.24660  110.77000  110.77000  # hc,c,c,hc
dihedral_coeff	13 at   -0.80850    0.55690   -0.24660   -0.80850    0.55690   -0.24660  110.77000  110.77000  # hc,c,c1,hc

# AngleAngleTorsion Coeffs

dihedral_coeff	 1 aat  -22.04500  112.67000  112.67000  # c,c,c1,c
dihedral_coeff	 2 aat    0.00000  112.67000  107.00000  # c,c,c1,cl
dihedral_coeff	 3 aat  -16.16400  112.67000  110.77000  # c,c,c1,hc
dihedral_coeff	 4 aat  -22.04500  112.67000  112.67000  # c,c1,c,c1
dihedral_coeff	 5 aat  -16.16400  112.67000  110.77000  # c,c1,c,hc
dihedral_coeff	 6 aat    0.00000  112.67000  107.00000  # c1,c,c,cl
dihedral_coeff	 7 aat  -16.16400  112.67000  110.77000  # c1,c,c,hc
dihedral_coeff	 8 aat    0.00000  112.67000  107.00000  # c1,c,c1,cl
dihedral_coeff	 9 aat  -16.16400  112.67000  110.77000  # c1,c,c1,hc
dihedral_coeff	10 aat    0.00000  107.00000  110.77000  # cl,c,c,hc
dihedral_coeff	11 aat    0.00000  107.00000  110.77000  # cl,c1,c,hc
dihedral_coeff	12 aat  -12.56400  110.77000  110.77000  # hc,c,c,hc
dihedral_coeff	13 aat  -12.56400  110.77000  110.77000  # hc,c,c1,hc

# BondBond13 Coeffs

dihedral_coeff	 1 bb13    0.00000    1.53000    1.53000  # c,c,c1,c
dihedral_coeff	 2 bb13    0.00000    1.53000    1.79000  # c,c,c1,cl
dihedral_coeff	 3 bb13    0.00000    1.53000    1.10100  # c,c,c1,hc
dihedral_coeff	 4 bb13    0.00000    1.53000    1.53000  # c,c1,c,c1
dihedral_coeff	 5 bb13    0.00000    1.53000    1.10100  # c,c1,c,hc
dihedral_coeff	 6 bb13    0.00000    1.53000    1.79000  # c1,c,c,cl
dihedral_coeff	 7 bb13    0.00000    1.53000    1.10100  # c1,c,c,hc
dihedral_coeff	 8 bb13    0.00000    1.53000    1.79000  # c1,c,c1,cl
dihedral_coeff	 9 bb13    0.00000    1.53000    1.10100  # c1,c,c1,hc
dihedral_coeff	10 bb13    0.00000    1.79000    1.10100  # cl,c,c,hc
dihedral_coeff	11 bb13    0.00000    1.79000    1.10100  # cl,c1,c,hc
dihedral_coeff	12 bb13    0.00000    1.10100    1.10100  # hc,c,c,hc
dihedral_coeff	13 bb13    0.00000    1.10100    1.10100  # hc,c,c1,hc

# Improper Coeffs

improper_coeff	 1    0.00000    0.00000  # c,c,cl,hc
improper_coeff	 2    0.00000    0.00000  # c,c,hc,c1
improper_coeff	 3    0.00000    0.00000  # c,c,hc,cl
improper_coeff	 4    0.00000    0.00000  # c,c,hc,hc
improper_coeff	 5    0.00000    0.00000  # c,c1,c1,hc
improper_coeff	 6    0.00000    0.00000  # c,c1,hc,hc
improper_coeff	 7    0.00000    0.00000  # c,cl,hc,hc
improper_coeff	 8    0.00000    0.00000  # c,hc,hc,hc
improper_coeff	 9    0.00000    0.00000  # c1,c,c,cl
improper_coeff	10    0.00000    0.00000  # c1,c,c,hc
improper_coeff	11    0.00000    0.00000  # c1,c,cl,hc

# AngleAngle Coeffs

improper_coeff	 1 aa    0.00000    0.00000    0.00000  107.00000  110.77000  107.99680  # c,c,cl,hc
improper_coeff	 2 aa    0.11840   -1.31990   -1.31990  110.77000  112.67000  110.77000  # c,c,hc,c1
improper_coeff	 3 aa    0.00000    0.00000    0.00000  110.77000  107.00000  107.99680  # c,c,hc,cl
improper_coeff	 4 aa    0.27380   -0.48250    0.27380  110.77000  110.77000  107.66000  # c,c,hc,hc
improper_coeff	 5 aa   -1.31990   -1.31990    0.11840  112.67000  110.77000  110.77000  # c,c1,c1,hc
improper_coeff	 6 aa    0.27380   -0.48250    0.27380  110.77000  110.77000  107.66000  # c,c1,hc,hc
improper_coeff	 7 aa    0.00000    0.00000    0.00000  107.99680  107.99680  107.66000  # c,cl,hc,hc
improper_coeff	 8 aa   -0.31570   -0.31570   -0.31570  107.66000  107.66000  107.66000  # c,hc,hc,hc
improper_coeff	 9 aa    0.00000    0.00000    0.00000  112.67000  107.00000  107.00000  # c1,c,c,cl
improper_coeff	10 aa   -1.31990   -1.31990    0.11840  112.67000  110.77000  110.77000  # c1,c,c,hc
improper_coeff	11 aa    0.00000    0.00000    0.00000  107.00000  110.77000  107.99680  # c1,c,cl,hc


# --- Thermo Output ---
thermo_style custom step time temp press enthalpy etotal ke pe ebond eangle edihed eimp evdwl ecoul elong etail vol lx ly lz density pxx pyy pzz
thermo_modify flush yes
thermo 1000

# --- Trajectory ---
dump dump_nvt all custom 1000 nvt_softheat.dump id type mol x y z ix iy iz vx vy vz

# --- Restart Checkpointing ---
restart 10000 nvt_1.rst nvt_2.rst

# --- Initial Velocities (optional) ---
velocity all create 300.0 547989 mom yes rot yes dist gaussian

# --- SHAKE Constraints ---
# Constrains H-X bonds to allow 2fs timestep
# SHAKE disabled

# --- NVT Thermostat (Nose-Hoover) ---
# T_damp = 50.0 fs  (coupling timescale for heat exchange)
# Ramp: 300.0 K -> 610.0 K over 300000 steps
timestep 0.5
fix nvt_fix all nvt temp 300.0 610.0 50.0

run 300000
PPPM Kokkos initialization ...
  using 12-bit tables for long-range coulomb
  G vector (1/distance) = 0.28916327
  grid = 30 30 30
  stencil order = 5
  estimated absolute RMS force accuracy = 0.00033761496
  estimated relative force accuracy = 1.0167174e-06
  using double precision cuFFT
  3d grid and FFT values/proc = 50653 27000
Generated 6 of 6 mixed pair_coeff terms from sixthpower/sixthpower mixing rule
Neighbor list info ...
  update: every = 1 steps, delay = 0 steps, check = yes
  max neighbors/atom: 4000, page size: 100000
  master list distance cutoff = 11.5
  ghost atom cutoff = 11.5
  binsize = 11.5, bins = 5 5 5
  1 neighbor lists, perpetual/occasional/extra = 1 0 0
  (1) pair lj/class2/coul/long/kk, perpetual
      attributes: full, newton off, kokkos_device
      pair build: full/bin/kk/device
      stencil: full/bin/3d
      bin: kk/device
Per MPI rank memory allocation (min/avg/max) = 25.76 | 25.76 | 25.76 Mbytes
   Step          Time           Temp          Press         Enthalpy        TotEng         KinEng         PotEng         E_bond        E_angle        E_dihed        E_impro         E_vdwl         E_coul         E_long         E_tail         Volume           Lx             Ly             Lz          Density          Pxx            Pyy            Pzz      
         0   0              300            995.37402     -640.91244     -2285.3135      3236.2655     -5521.579       129.58007      779.55495     -2082.539       18.33667      -622.9613      -1585.7876     -2157.7628     -111.71592      113278         48.385495      48.385495      48.385495      0.54999999     1046.0819      895.97214      1044.068     
      1000   500            305.46562     -420.21914      373.80184      1068.0221      3295.2261     -2227.204       1330.0688      2279.2079     -1963.576       24.38836      -205.39311     -1545.1101     -2146.7899     -111.71592      113278         48.385495      48.385495      48.385495      0.54999999    -518.11304     -1171.0204      428.47603    
      2000   1000           306.83582     -465.94963      373.67252      1143.4415      3310.0072     -2166.5657      1317.2775      2316.6814     -1987.1928      24.544319     -152.82545     -1539.3114     -2145.7393     -111.71592      113278         48.385495      48.385495      48.385495      0.54999999     210.63401     -697.13586     -911.34703    
      3000   1500           299.96826     -343.51715      509.29626      1076.8015      3235.923      -2159.1215      1332.0424      2244.0625     -1985.1011      23.262823     -85.221825     -1543.8113     -2144.3549     -111.71592      113278         48.385495      48.385495      48.385495      0.54999999    -279.87322     -521.43828     -229.23994    
      4000   2000           307.61978     -580.6148       247.77612      1206.977       3318.4642     -2111.4873      1339.7926      2325.1613     -1988.51        24.314424     -121.47055     -1541.3068     -2149.4682     -111.71592      113278         48.385495      48.385495      48.385495      0.54999999    -329.67136     -987.38546     -424.78757    
      5000   2500           304.12294     -466.77537      329.11047      1100.2437      3280.7419     -2180.4982      1319.3964      2257.6623     -1970.3019      22.549751     -116.57516     -1544.4573     -2148.7722     -111.71592      113278         48.385495      48.385495      48.385495      0.54999999    -446.60746     -477.56844     -476.15022    
      6000   3000           312.00981      45.245781      1325.7945      1251.0465      3365.8219     -2114.7753      1348.4993      2238.1521     -1976.8585      23.065069     -52.733232     -1548.3365     -2146.5635     -111.71592      113278         48.385495      48.385495      48.385495      0.54999999     529.0645      -176.72741     -216.59975    
      7000   3500           301.07024     -207.01298      837.59702      1179.5914      3247.8108     -2068.2193      1419.3285      2289.1667     -1972.4269      24.143363     -118.72765     -1553.7546     -2155.9488     -111.71592      113278         48.385495      48.385495      48.385495      0.54999999    -799.9006      -383.5341       562.39577    
      8000   4000           310.65926     -188.23514      908.78674      1219.7594      3351.2528     -2131.4934      1340.2465      2357.5073     -2016.9962      24.592559     -137.03092     -1546.4587     -2153.3539     -111.71592      113278         48.385495      48.385495      48.385495      0.54999999    -607.76655     -287.52464      330.58577    
      9000   4500           305.54845     -333.82084      545.69225      1097.1788      3296.1197     -2198.9409      1286.7682      2268.4002     -1972.4825      22.778914     -99.382473     -1552.5087     -2152.5145     -111.71592      113278         48.385495      48.385495      48.385495      0.54999999    -856.45995      227.99926     -373.00184    
     10000   5000           308.02        -605.63012      165.37246      1165.8997      3322.7817     -2156.8819      1381.0023      2278.9891     -1970.6076      22.764205     -161.58093     -1549.0878     -2158.3613     -111.71592      113278         48.385495      48.385495      48.385495      0.54999999    -290.03299     -919.71821     -607.13917    
     11000   5500           305.57199      13.124115      1187.7486      1166.067       3296.3736     -2130.3066      1336.2103      2289.4696     -1987.2227      23.136562     -80.881955     -1554.089      -2156.9294     -111.71592      113278         48.385495      48.385495      48.385495      0.54999999    -165.2695       181.33553      23.306315    
     12000   6000           318.87973      525.05002      2091.2906      1223.8852      3439.9315     -2216.0463      1288.2892      2266.1234     -1974.2014      22.697857     -112.36507     -1552.4516     -2154.1387     -111.71592      113278         48.385495      48.385495      48.385495      0.54999999     814.02002     -68.583479      829.71353    
     13000   6500           306.64895     -560.76809      260.23493      1186.6482      3307.9913     -2121.3432      1394.7027      2286.2494     -1979.8576      22.748024     -130.94019     -1555.2787     -2158.9667     -111.71592      113278         48.385495      48.385495      48.385495      0.54999999    -817.67744     -79.428801     -785.19801    
     14000   7000           318.64811     -246.0316       885.07738      1291.5323      3437.4329     -2145.9007      1370.6976      2291.2997     -1994.1056      22.244352     -105.48282     -1565.8192     -2164.7347     -111.71592      113278         48.385495      48.385495      48.385495      0.54999999    -48.915127     -695.15777      5.9781044    
     15000   7500           316.46564      289.62409      1811.9648      1333.4932      3413.8894     -2080.3962      1361.7568      2321.2999     -1993.7213      23.652095     -61.013662     -1571.6291     -2160.741      -111.71592      113278         48.385495      48.385495      48.385495      0.54999999     813.55693      380.19067     -324.87532    
     16000   8000           313.83597     -272.18269      768.38991      1218.0475      3385.5218     -2167.4742      1392.3898      2278.8494     -1993.072       23.776435     -143.99585     -1563.5895     -2161.8325     -111.71592      113278         48.385495      48.385495      48.385495      0.54999999     177.53824     -950.0842      -44.002102    
     17000   8500           318.86934     -189.32586      981.43046      1294.205       3439.8195     -2145.6145      1346.8507      2290.8886     -1972.993       22.493204     -105.71678     -1564.2623     -2162.8749     -111.71592      113278         48.385495      48.385495      48.385495      0.54999999    -9.3076362      17.019752     -575.68971    
     18000   9000           317.16231      157.83946      1564.3477      1303.5901      3421.4048     -2117.8147      1374.8475      2298.9212     -1983.8901      24.259992     -100.20631     -1568.3557     -2163.3913     -111.71592      113278         48.385495      48.385495      48.385495      0.54999999     112.49472      50.063705      310.95994    
     19000   9500           315.73294     -222.13482      953.36116      1320.3375      3405.9854     -2085.6479      1407.3161      2274.9502     -1961.8729      22.379898     -104.02917     -1565.5066     -2158.8854     -111.71592      113278         48.385495      48.385495      48.385495      0.54999999    -345.59973     -304.6809      -16.123825    
     20000   10000          314.99453      560.47197      2235.5158      1309.5918      3398.0198     -2088.428       1382.5989      2268.0084     -1971.9602      22.735229     -61.489414     -1570.2503     -2158.0706     -111.71592      113278         48.385495      48.385495      48.385495      0.54999999     568.01985      107.48998      1005.9061    
     21000   10500          322.22839     -689.04733      320.02823      1458.3643      3476.0554     -2017.691       1416.2692      2343.1662     -1977.2103      22.649678     -108.32313     -1555.1674     -2159.0753     -111.71592      113278         48.385495      48.385495      48.385495      0.54999999    -279.95824     -1291.6875     -495.49628    
     22000   11000          318.44016     -403.06214      655.26298      1321.1391      3435.1896     -2114.0505      1339.8451      2267.1699     -1950.9845      22.184515     -94.761182     -1545.4829     -2152.0215     -111.71592      113278         48.385495      48.385495      48.385495      0.54999999    -685.89283     -979.27782      455.98424    
     23000   11500          321.99614     -244.28209      992.01655      1395.5812      3473.55       -2077.9688      1388.8635      2281.9275     -1971.5059      21.49051      -96.786344     -1550.7984     -2151.1596     -111.71592      113278         48.385495      48.385495      48.385495      0.54999999     189.46402     -239.48908     -682.82121    
     24000   12000          327.25361      184.44923      1769.076       1464.3579      3530.2652     -2065.9072      1332.6536      2335.2137     -1957.4941      20.976285     -67.65817      -1568.9647     -2160.6339     -111.71592      113278         48.385495      48.385495      48.385495      0.54999999     506.07364      511.78918     -464.51514    
     25000   12500          323.54969     -340.87449      858.00489      1421.1443      3490.3089     -2069.1646      1413.68        2266.4128     -1952.4311      20.891754     -93.750075     -1561.7942     -2162.1738     -111.71592      113278         48.385495      48.385495      48.385495      0.54999999    -585.42885      239.01785     -676.21246    
     26000   13000          327.43281     -307.32343      1022.2992      1530.0109      3532.1983     -2002.1874      1402.3306      2363.2336     -1994.3182      22.125721     -76.939427     -1557.9798     -2160.6399     -111.71592      113278         48.385495      48.385495      48.385495      0.54999999    -629.25836     -105.54205     -187.16989    
     27000   13500          334.1202      -196.35998      1155.3935      1479.7887      3604.3388     -2124.5502      1367.1841      2270.7446     -1979.8426      21.199551     -91.287273     -1554.7545     -2157.7941     -111.71592      113278         48.385495      48.385495      48.385495      0.54999999    -401.56917     -786.46318      598.95239    
     28000   14000          326.12604     -827.46091      90.925229      1457.9266      3518.1015     -2060.175       1431.7228      2335.3109     -2006.9288      22.519657     -127.76888     -1556.2488     -2158.7818     -111.71592      113278         48.385495      48.385495      48.385495      0.54999999    -816.12216     -1021.0888     -645.17177    
     29000   14500          325.99375     -646.14614      568.90049      1636.362       3516.6744     -1880.3125      1444.0024      2400.2119     -1941.4292      21.722042     -99.002494     -1550.7221     -2155.095      -111.71592      113278         48.385495      48.385495      48.385495      0.54999999    -608.53089     -830.62594     -499.28159    
     30000   15000          331.08026     -249.74064      1173.9218      1586.5042      3571.5454     -1985.0412      1430.1125      2363.6839     -1974.0505      21.378448     -113.33905     -1552.303      -2160.5235     -111.71592      113278         48.385495      48.385495      48.385495      0.54999999    -203.75629      315.80694     -861.27256    
     31000   15500          329.97504      111.66867      1702.6399      1518.1584      3559.6228     -2041.4644      1405.0622      2335.6187     -1968.7146      21.805744     -120.75334     -1552.7297     -2161.7534     -111.71592      113278         48.385495      48.385495      48.385495      0.54999999    -106.15809      402.95675      38.207353    
     32000   16000          337.33275      294.40605      2099.1256      1612.7541      3638.9944     -2026.2403      1385.3253      2315.8517     -1979.2538      20.975237     -62.94654      -1550.6294     -2155.5629     -111.71592      113278         48.385495      48.385495      48.385495      0.54999999     310.92273      92.033907      480.2615     
     33000   16500          331.98817     -311.91975      1001.4158      1516.7208      3581.3395     -2064.6187      1380.7716      2348.9458     -1987.5005      21.066595     -115.87303     -1548.2955     -2163.7337     -111.71592      113278         48.385495      48.385495      48.385495      0.54999999     212.50084     -470.29615     -677.96394    
     34000   17000          324.97869     -702.83534      377.35948      1538.474       3505.7243     -1967.2504      1500.6761      2320.5569     -1979.3986      21.976869     -104.15776     -1560.7789     -2166.1249     -111.71592      113278         48.385495      48.385495      48.385495      0.54999999    -1069.1165     -1036.3555     -3.0339689    
     35000   17500          336.84188      14.106046      1673.719       1650.4152      3633.6992     -1983.284       1398.4814      2351.6215     -1947.2195      20.780161     -77.395705     -1563.4889     -2166.063      -111.71592      113278         48.385495      48.385495      48.385495      0.54999999     332.20007     -32.655233     -257.2267     
     36000   18000          342.3153       174.61975      1926.8217      1638.3423      3692.744      -2054.4017      1391.1201      2325.7777     -1958.1882      20.776107     -96.719675     -1568.694      -2168.4738     -111.71592      113278         48.385495      48.385495      48.385495      0.54999999    -323.73463      544.78033      302.81355    
     37000   18500          336.74573     -994.03959      24.331314      1666.5279      3632.662      -1966.1341      1542.7767      2318.6186     -1973.5366      21.572627     -145.74633     -1561.5345     -2168.2846     -111.71592      113278         48.385495      48.385495      48.385495      0.54999999    -1164.9349     -862.17092     -955.01299    
     38000   19000          337.76682     -265.55348      1100.2608      1538.9667      3643.677      -2104.7103      1413.0278      2287.4924     -1974.1509      21.124489     -123.91109     -1565.1854     -2163.1075     -111.71592      113278         48.385495      48.385495      48.385495      0.54999999    -79.604668     -671.49941     -45.556374    
     39000   19500          340.74788      199.94713      1981.4522      1651.1309      3675.8354     -2024.7045      1424.1461      2369.0578     -1981.2915      22.173075     -138.80653     -1561.7839     -2158.1995     -111.71592      113278         48.385495      48.385495      48.385495      0.54999999     266.08308      277.87542      55.882888    
     40000   20000          336.37934     -230.1273       1314.3984      1694.5787      3628.7095     -1934.1308      1508.3203      2332.3761     -1957.7572      20.570488     -102.21984     -1570.6912     -2164.7294     -111.71592      113278         48.385495      48.385495      48.385495      0.54999999    -37.363755     -440.49488     -212.52326    
     41000   20500          345.50432     -249.47116      1325.3373      1737.4745      3727.1457     -1989.6712      1479.7713      2350.0393     -1983.7661      21.156691     -122.05376     -1570.0349     -2164.7836     -111.71592      113278         48.385495      48.385495      48.385495      0.54999999     112.89941     -363.83472     -497.47817    
     42000   21000          349.2135      -912.36092      355.57047      1862.8303      3767.1586     -1904.3283      1495.1926      2386.6591     -1963.6076      21.149124     -117.88393     -1560.5737     -2165.264      -111.71592      113278         48.385495      48.385495      48.385495      0.54999999    -710.55368     -699.25993     -1327.2691    
     43000   21500          339.59567     -138.40637      1493.5501      1722.2034      3663.4058     -1941.2024      1452.3585      2359.9372     -1990.376       20.946481     -59.500385     -1562.4065     -2162.1617     -111.71592      113278         48.385495      48.385495      48.385495      0.54999999    -238.34193     -404.83817      227.961      
     44000   22000          349.30782     -348.52492      1266.9235      1842.7018      3768.1761     -1925.4743      1493.0567      2309.0705     -1967.7602      21.193486     -63.147138     -1557.369      -2160.5186     -111.71592      113278         48.385495      48.385495      48.385495      0.54999999    -95.672387     -526.30109     -423.60128    
     45000   22500          349.81338      323.10952      2346.5749      1812.784       3773.6298     -1960.8458      1460.2736      2338.3686     -1961.5544      20.097942     -97.560599     -1559.0123     -2161.4587     -111.71592      113278         48.385495      48.385495      48.385495      0.54999999     426.51809      426.78319      116.02726    
     46000   23000          355.77481      92.571252      2078.1157      1925.1839      3837.9391     -1912.7551      1462.8673      2350.746      -1933.5313      20.675651     -83.241982     -1566.1693     -2164.1015     -111.71592      113278         48.385495      48.385495      48.385495      0.54999999     318.91019     -159.93941      118.74298    
     47000   23500          351.81048     -347.41525      1291.308       1865.253       3795.1737     -1929.9207      1476.8566      2349.0597     -1947.7674      20.733509     -91.701787     -1569.2425     -2167.8588     -111.71592      113278         48.385495      48.385495      48.385495      0.54999999     1.9819061     -487.15373     -557.07393    
     48000   24000          338.65233      132.42105      2017.324       1798.5587      3653.2294     -1854.6707      1492.4798      2435.4483     -1980.2664      21.343588     -79.938087     -1576.5561     -2167.1819     -111.71592      113278         48.385495      48.385495      48.385495      0.54999999     561.27732     -67.53953      -96.474645    
     49000   24500          350.80781     -663.20826      851.39691      1947.0457      3784.3573     -1837.3115      1510.8615      2404.5052     -1962.2939      20.419005     -76.961951     -1567.4433     -2166.3982     -111.71592      113278         48.385495      48.385495      48.385495      0.54999999    -190.37044     -938.85593     -860.3984     
     50000   25000          351.53561      376.39239      2405.2208      1783.4042      3792.2085     -2008.8043      1423.0564      2353.7234     -1977.6288      19.971644     -88.724515     -1570.9077     -2168.2948     -111.71592      113278         48.385495      48.385495      48.385495      0.54999999     568.96312      139.76131      420.45273    
     51000   25500          351.70369      846.1993       3237.2426      1839.2846      3794.0217     -1954.7371      1488.356       2268.1252     -1950.5268      18.957357     -32.880699     -1579.02       -2167.748      -111.71592      113278         48.385495      48.385495      48.385495      0.54999999     840.04074      801.68692      896.87025    
     52000   26000          354.60544     -576.63008      945.76737      1898.3853      3825.3245     -1926.9392      1523.9026      2342.8459     -1967.8952      21.150162     -114.5185      -1565.1822     -2167.242      -111.71592      113278         48.385495      48.385495      48.385495      0.54999999    -1059.0882     -714.31019      43.508148    
     53000   26500          353.68771     -638.30854      938.66353      1993.177       3815.4244     -1822.2475      1538.433       2428.3799     -1988.7776      20.747154     -75.086785     -1572.2153     -2173.7278     -111.71592      113278         48.385495      48.385495      48.385495      0.54999999    -920.23426     -1125.7096      131.01828    
     54000   27000          350.60922     -373.62186      1263.4206      1880.6601      3782.215      -1901.5549      1500.1265      2325.5397     -1962.7635      18.796797     -48.787206     -1566.9344     -2167.5328     -111.71592      113278         48.385495      48.385495      48.385495      0.54999999    -697.30858     -243.04779     -180.50922    
     55000   27500          361.56132     -316.64165      1582.1619      2105.2677      3900.3614     -1795.0938      1530.6095      2426.6337     -1954.831       20.089366     -81.867918     -1568.7347     -2166.9927     -111.71592      113278         48.385495      48.385495      48.385495      0.54999999     28.267753     -364.73697     -613.45572    
     56000   28000          347.22894      432.90048      2656.2144      1941.044       3745.7501     -1804.7061      1530.6266      2399.6741     -1965.9419      20.961871     -47.09312      -1573.5447     -2169.389      -111.71592      113278         48.385495      48.385495      48.385495      0.54999999     253.69043      530.24118      514.76984    
     57000   28500          352.94428      269.64388      2450.8405      2005.3771      3807.4046     -1802.0276      1499.1317      2404.8417     -1912.4057      20.052058     -72.36179      -1571.1043     -2170.1812     -111.71592      113278         48.385495      48.385495      48.385495      0.54999999    -354.83387      719.55991      444.20561    
     58000   29000          356.28968     -617.94929      1057.0247      2077.9037      3843.4933     -1765.5896      1559.977       2416.6856     -1946.8952      19.910276     -77.284487     -1566.881      -2171.1018     -111.71592      113278         48.385495      48.385495      48.385495      0.54999999    -736.99215     -731.09409     -385.76164    
     59000   29500          362.90842      23.178447      2107.3132      2069.0214      3914.8933     -1845.8719      1467.4706      2457.0808     -1960.5201      21.211623     -79.602388     -1577.4786     -2174.0339     -111.71592      113278         48.385495      48.385495      48.385495      0.54999999     477.33011     -237.24799     -170.54678    
     60000   30000          354.50336     -116.83071      1772.4003      1965.4097      3824.2233     -1858.8135      1472.0601      2416.3025     -1970.3028      20.223652     -46.600977     -1579.6418     -2170.8541     -111.71592      113278         48.385495      48.385495      48.385495      0.54999999     45.856584      96.13335      -492.48205    
     61000   30500          361.63673     -16.024246      2093.2025      2119.6753      3901.1749     -1781.4997      1574.5311      2389.4751     -1959.5448      20.754526     -55.654152     -1577.1504     -2173.911      -111.71592      113278         48.385495      48.385495      48.385495      0.54999999    -250.04905      419.34523     -217.36892    
     62000   31000          364.17053     -482.36704      1406.3564      2203.2477      3928.5084     -1725.2607      1576.6933      2448.3918     -1980.6656      20.193967     -32.864384     -1582.4406     -2174.5693     -111.71592      113278         48.385495      48.385495      48.385495      0.54999999    -26.408415     -1576.0688      155.37611    
     63000   31500          362.86191     -99.41922       1955.156       2119.4009      3914.3916     -1794.9907      1543.9002      2393.6633     -1974.7379      19.41288      -20.100735     -1583.7137     -2173.4147     -111.71592      113278         48.385495      48.385495      48.385495      0.54999999    -404.1187       66.298476      39.562569    
     64000   32000          372.50194     -398.56632      1616.912       2275.3609      4018.3839     -1743.023       1614.5291      2419.0024     -1976.4724      22.096666     -76.335223     -1573.7597     -2172.0838     -111.71592      113278         48.385495      48.385495      48.385495      0.54999999    -388.35004     -1017.8885      210.53957    
     65000   32500          361.34954     -454.22027      1295.5553      2045.9469      3898.0768     -1852.13        1543.0461      2402.8497     -1985.6994      20.534392     -79.670088     -1578.4064     -2174.7843     -111.71592      113278         48.385495      48.385495      48.385495      0.54999999     276.54042     -1254.7316     -384.46964    
     66000   33000          371.82625     -852.86398      934.60903      2343.5774      4011.0948     -1667.5175      1603.3028      2469.4165     -1930.6036      20.924214     -92.278634     -1571.0186     -2167.2602     -111.71592      113278         48.385495      48.385495      48.385495      0.54999999    -776.78023     -1512.2802     -269.53147    
     67000   33500          371.13524     -115.80263      2088.1456      2279.4566      4003.6406     -1724.184       1575.5665      2450.4141     -1957.9336      19.470224     -58.875009     -1582.5744     -2170.2518     -111.71592      113278         48.385495      48.385495      48.385495      0.54999999    -548.02698     -166.94601      367.5651     
     68000   34000          368.37784      336.50253      2681.9723      2126.0555      3973.895      -1847.8394      1471.012       2495.3863     -2016.9391      22.147986     -77.43177      -1573.1784     -2168.8365     -111.71592      113278         48.385495      48.385495      48.385495      0.54999999     1327.2707     -261.70462     -56.058514    
     69000   34500          365.81053      270.11497      2604.4375      2158.1959      3946.2        -1788.0041      1538.0888      2467.7785     -1994.8922      21.53964      -63.459176     -1588.8442     -2168.2154     -111.71592      113278         48.385495      48.385495      48.385495      0.54999999     92.298133      246.34071      471.70608    
     70000   35000          379.17492     -262.11518      1893.9384      2326.9641      4090.369      -1763.4049      1549.4031      2435.4382     -1983.049       21.196969     -38.336993     -1579.5657     -2168.4915     -111.71592      113278         48.385495      48.385495      48.385495      0.54999999    -630.82036      190.38489     -345.91008    
     71000   35500          378.1392       429.15051      3046.1233      2337.148       4079.1961     -1742.0481      1544.0156      2471.3095     -1971.448       20.681133     -50.868112     -1586.2019     -2169.5363     -111.71592      113278         48.385495      48.385495      48.385495      0.54999999     998.01917      152.58009      136.85227    
     72000   36000          376.69474     -91.913542      2097.7255      2249.5706      4063.6139     -1814.0433      1569.9182      2375.1243     -1969.2921      19.453823     -57.283626     -1583.174      -2168.7899     -111.71592      113278         48.385495      48.385495      48.385495      0.54999999    -277.61672      29.427625     -27.551533    
     73000   36500          384.52077     -189.63028      2048.6862      2361.9636      4148.0377     -1786.074       1577.4072      2438.3774     -1970.7025      21.368845     -110.82661     -1577.1541     -2164.5443     -111.71592      113278         48.385495      48.385495      48.385495      0.54999999    -212.00973      123.11788     -479.99899    
     74000   37000          371.54797     -194.38234      1951.5763      2272.7043      4008.0928     -1735.3885      1612.6076      2471.459      -1975.1342      20.698958     -119.8702      -1578.8712     -2166.2784     -111.71592      113278         48.385495      48.385495      48.385495      0.54999999     169.66125     -226.13106     -526.67723    
     75000   37500          382.73889     -410.77764      1922.6454      2601.2679      4128.8155     -1527.5476      1706.4901      2537.5708     -1958.4596      20.200436     -83.211758     -1579.201      -2170.9366     -111.71592      113278         48.385495      48.385495      48.385495      0.54999999    -267.3604      -665.97667     -298.99584    
     76000   38000          380.71461      65.585625      2507.5087      2399.1584      4106.9785     -1707.8201      1569.0912      2464.2875     -1966.1721      20.042407     -47.343674     -1582.62       -2165.1054     -111.71592      113278         48.385495      48.385495      48.385495      0.54999999     64.581691     -135.0761       267.25129    
     77000   38500          381.55793     -333.76759      1882.9857      2434.3843      4116.0759     -1681.6916      1565.6114      2482.4583     -1944.7164      19.918915     -58.438812     -1580.5596     -2165.9654     -111.71592      113278         48.385495      48.385495      48.385495      0.54999999    -441.97384     -258.33284     -300.9961     
     78000   39000          373.92337     -458.81386      1545.293       2303.2734      4033.7177     -1730.4443      1593.8872      2445.028      -1971.4038      20.081511     -73.908138     -1578.61       -2165.5191     -111.71592      113278         48.385495      48.385495      48.385495      0.54999999    -205.28992     -1200.3697      29.218023    
     79000   39500          376.23369     -788.62663      1063.9127      2366.7581      4058.6404     -1691.8823      1607.8551      2479.9494     -1987.0378      20.316406     -59.919985     -1586.779      -2166.2664     -111.71592      113278         48.385495      48.385495      48.385495      0.54999999    -1437.8828     -586.53125     -341.46588    
     80000   40000          386.54077     -7.5973081      2566.6661      2579.2172      4169.8285     -1590.6113      1584.85        2578.4109     -1978.1352      19.983865     -49.500614     -1581.2479     -2164.9725     -111.71592      113278         48.385495      48.385495      48.385495      0.54999999    -496.59708      132.10345      341.7017     
     81000   40500          387.27637      65.530198      2549.3657      2441.107       4177.7638     -1736.6568      1575.8507      2450.8876     -1953.4629      19.155204     -76.57971      -1585.297      -2167.2106     -111.71592      113278         48.385495      48.385495      48.385495      0.54999999     321.60548      150.59064     -275.60553    
     82000   41000          392.17267     -1022.7649      876.81877      2566.4707      4230.583      -1664.1122      1656.3121      2499.1821     -1977.5459      20.58838      -119.94254     -1577.1767     -2165.5296     -111.71592      113278         48.385495      48.385495      48.385495      0.54999999    -1375.8521     -798.52403     -893.91849    
     83000   41500          389.31609     -361.58242      1978.2174      2575.5672      4199.7674     -1624.2002      1615.0798      2547.1377     -1977.8122      22.450256     -70.9375       -1589.1797     -2170.9386     -111.71592      113278         48.385495      48.385495      48.385495      0.54999999    -508.90077     -639.13565      63.289144    
     84000   42000          387.89908     -647.11087      1389.0467      2458.1019      4184.4814     -1726.3794      1623.4444      2449.8184     -1954.0126      19.688452     -104.89067     -1589.0061     -2171.4214     -111.71592      113278         48.385495      48.385495      48.385495      0.54999999    -900.32342     -215.89256     -825.11663    
     85000   42500          384.07763      17.675527      2521.9864      2492.7856      4143.2573     -1650.4716      1648.1481      2484.8555     -1980.9083      20.820442     -77.079689     -1583.3048     -2163.0029     -111.71592      113278         48.385495      48.385495      48.385495      0.54999999    -725.08321     -152.19752      930.30731    
     86000   43000          390.62627     -42.79816       2626.276       2696.9805      4213.9011     -1516.9206      1664.1409      2597.9742     -1978.2344      20.987033     -59.843478     -1590.5064     -2171.4384     -111.71592      113278         48.385495      48.385495      48.385495      0.54999999    -805.38119      416.6877       260.29902    
     87000   43500          386.07663     -54.297621      2489.0228      2578.7248      4164.8216     -1586.0967      1654.1084      2528.5307     -1974.1411      20.46289      -50.905593     -1590.4611     -2173.6909     -111.71592      113278         48.385495      48.385495      48.385495      0.54999999    -57.339589     -771.52969      665.97641    
     88000   44000          392.62355      110.96401      2717.6101      2534.2927      4235.4468     -1701.1541      1607.4818      2469.4748     -1974.31        19.585015     -61.025678     -1593.8236     -2168.5364     -111.71592      113278         48.385495      48.385495      48.385495      0.54999999    -279.22873     -98.064068      710.18483    
     89000   44500          391.31436     -153.88675      2377.6796      2631.9072      4221.3238     -1589.4166      1713.7272      2482.2284     -1975.7914      20.180977     -60.931417     -1592.9515     -2175.8788     -111.71592      113278         48.385495      48.385495      48.385495      0.54999999    -432.2108      -613.48854      584.0391     
     90000   45000          392.86403     -117.86151      2466.9859      2661.6982      4238.041      -1576.3427      1683.8933      2559.4454     -2006.8454      20.911712     -76.595965     -1588.969      -2168.1828     -111.71592      113278         48.385495      48.385495      48.385495      0.54999999    -124.04339      64.253045     -293.79418    
     91000   45500          399.63244      492.49265      3557.29        2743.6708      4311.0556     -1567.3848      1589.8427      2562.9202     -1988.5021      19.287124      5.1687994     -1589.952      -2166.1495     -111.71592      113278         48.385495      48.385495      48.385495      0.54999999     192.9513       478.56152      805.96513    
     92000   46000          396.61286     -255.87902      2311.8406      2734.5639      4278.4816     -1543.9178      1718.8971      2522.6588     -1964.6418      21.019985     -88.192436     -1582.5651     -2171.0943     -111.71592      113278         48.385495      48.385495      48.385495      0.54999999    -381.71136     -385.9051      -0.020611866  
     93000   46500          391.36226     -604.95593      1794.137       2793.5504      4221.8406     -1428.2902      1720.3385      2602.5136     -1992.292       20.29956      -37.241798     -1577.6239     -2164.2842     -111.71592      113278         48.385495      48.385495      48.385495      0.54999999    -584.93002     -631.78241     -598.15535    
     94000   47000          392.97109     -41.056478      2762.9064      2830.7335      4239.1959     -1408.4623      1645.1361      2661.641      -1964.9855      21.455791     -13.14614      -1589.6015     -2168.9622     -111.71592      113278         48.385495      48.385495      48.385495      0.54999999     162.62563     -348.38378      62.588711    
     95000   47500          399.47614     -418.95498      2190.6495      2882.7813      4309.3694     -1426.5881      1732.3829      2582.7174     -1989.9385      20.779909     -22.85997      -1584.0426     -2165.6273     -111.71592      113278         48.385495      48.385495      48.385495      0.54999999    -673.24721     -613.43103      29.813309    
     96000   48000          397.39107      40.535908      2971.6697      2904.7026      4286.8767     -1382.174       1783.0939      2586.2072     -2016.3038      21.612029      6.0008757     -1593.6924     -2169.092      -111.71592      113278         48.385495      48.385495      48.385495      0.54999999     671.41363     -568.45266      18.646753    
     97000   48500          404.84746     -234.95771      2483.0282      2871.1886      4367.3129     -1496.1243      1705.5469      2588.3905     -1974.0576      21.12862      -90.69131      -1580.6896     -2165.7518     -111.71592      113278         48.385495      48.385495      48.385495      0.54999999    -578.07245     -444.98595      318.18527    
     98000   49000          402.70059      152.11392      3076.2819      2824.9831      4344.1534     -1519.1703      1726.3859      2524.3502     -1968.815       18.891851     -54.73357      -1593.4633     -2171.7864     -111.71592      113278         48.385495      48.385495      48.385495      0.54999999    -141.02818      636.38922     -39.019293    
     99000   49500          402.91511     -139.65217      2609.1859      2839.8974      4346.4675     -1506.5702      1691.6494      2492.2392     -1944.1399      19.423884     -12.191513     -1584.3115     -2169.2398     -111.71592      113278         48.385495      48.385495      48.385495      0.54999999     76.034484     -861.54284      366.55185    
    100000   50000          403.31903     -449.35163      2184.3742      2926.7226      4350.8249     -1424.1022      1662.4193      2636.8541     -1958.3088      20.99442      -27.172864     -1586.4018     -2172.4866     -111.71592      113278         48.385495      48.385495      48.385495      0.54999999     201.10267     -210.93839     -1338.2192    
    101000   50500          411.50205     -769.88585      1710.7041      2982.5889      4439.0995     -1456.5106      1697.4923      2584.0898     -1968.4647      21.120447     -50.66216      -1572.3832     -2167.703      -111.71592      113278         48.385495      48.385495      48.385495      0.54999999    -1242.7081     -1076.7561      9.8066345    
    102000   51000          399.17818     -394.67666      2190.6064      2842.6294      4306.1552     -1463.5259      1677.4601      2503.6323     -1925.1848      19.564533     -0.62214713    -1573.9233     -2164.4526     -111.71592      113278         48.385495      48.385495      48.385495      0.54999999    -393.77415     -527.71525     -262.54057    
    103000   51500          417.40717      733.75767      4312.5984      3100.3989      4502.8013     -1402.4025      1673.4246      2575.3416     -1959.2946      19.77119       33.547954     -1578.1782     -2167.0151     -111.71592      113278         48.385495      48.385495      48.385495      0.54999999     827.95714      367.14701      1006.1689    
    104000   52000          400.98376     -136.42086      2812.6905      3038.0637      4325.633      -1287.5693      1806.2703      2586.7028     -1954.3122      21.208589      7.232273      -1580.8627     -2173.8084     -111.71592      113278         48.385495      48.385495      48.385495      0.54999999    -26.913954     -1278.4278      896.0792     
    105000   52500          408.8504      -468.71611      2295.2647      3069.6041      4410.4948     -1340.8907      1750.0203      2584.3887     -1931.718       19.252268     -10.319264     -1584.1613     -2168.3534     -111.71592      113278         48.385495      48.385495      48.385495      0.54999999    -768.82544     -285.84621     -351.47667    
    106000   53000          410.39863     -957.28106      1460.3381      3041.8079      4427.1964     -1385.3885      1730.1849      2576.543      -1951.7506      21.098547     -19.382256     -1574.4646     -2167.6175     -111.71592      113278         48.385495      48.385495      48.385495      0.54999999    -1248.9121     -891.37726     -731.55383    
    107000   53500          411.15134      68.821353      3146.5108      3032.8149      4435.3163     -1402.5014      1701.5686      2573.1717     -1955.0981      19.95333       8.1730116     -1580.6091     -2169.6609     -111.71592      113278         48.385495      48.385495      48.385495      0.54999999     905.38424     -548.10173     -150.81845    
    108000   54000          412.44037     -491.85041      2332.328       3144.8862      4449.2218     -1304.3356      1765.9555      2611.8346     -1932.9626      19.752003     -28.970432     -1574.2482     -2165.6965     -111.71592      113278         48.385495      48.385495      48.385495      0.54999999    -749.48135     -592.39548     -133.67438    
    109000   54500          414.53361      140.9365       3456.1023      3223.2691      4471.8026     -1248.5336      1766.8043      2687.2744     -1968.0819      21.728885      3.4797172     -1585.0116     -2174.7273     -111.71592      113278         48.385495      48.385495      48.385495      0.54999999     302.17419      333.38733     -212.75201    
    110000   55000          418.26023     -339.36183      2489.6903      3050.3308      4512.0038     -1461.673       1735.3629      2518.6177     -1952.744       21.238939     -48.208954     -1566.0736     -2169.866      -111.71592      113278         48.385495      48.385495      48.385495      0.54999999    -906.84347     -326.45914      215.21713    
    111000   55500          417.00179     -62.273052      3185.2258      3288.1036      4498.4283     -1210.3247      1765.9         2745.7453     -1975.8611      21.953454     -30.75668      -1577.1857     -2160.12       -111.71592      113278         48.385495      48.385495      48.385495      0.54999999    -40.457203      166.26142     -312.62337    
    112000   56000          410.18339     -13.590619      2960.1615      2982.6138      4424.8744     -1442.2606      1669.2791      2591.5594     -1956.0128      20.858718     -33.889788     -1573.2912     -2160.7641     -111.71592      113278         48.385495      48.385495      48.385495      0.54999999    -690.30715      238.49805      411.03724    
    113000   56500          415.64092     -61.564483      3122.8145      3224.5217      4483.7478     -1259.2262      1720.5503      2673.8572     -1923.8136      20.002347     -4.9267561     -1575.3972     -2169.4986     -111.71592      113278         48.385495      48.385495      48.385495      0.54999999    -90.947797      128.46206     -222.20771    
    114000   57000          413.54268     -980.6859       1533.0079      3153.1436      4461.113      -1307.9694      1812.5108      2536.4994     -1935.7538      20.180155      12.39168      -1584.6228     -2169.1749     -111.71592      113278         48.385495      48.385495      48.385495      0.54999999    -958.6666      -1384.3856     -599.00544    
    115000   57500          427.69669      424.93648      4115.9764      3413.9629      4613.8001     -1199.8372      1692.9831      2721.9633     -1949.0738      23.484863      66.880118     -1586.322      -2169.7529     -111.71592      113278         48.385495      48.385495      48.385495      0.54999999     527.66945      498.44846      248.69153    
    116000   58000          419.00718     -525.872        2383.8891      3252.6525      4520.0615     -1267.4091      1813.0872      2573.3071     -1973.6525      19.073667      41.86219      -1574.5023     -2166.5845     -111.71592      113278         48.385495      48.385495      48.385495      0.54999999    -717.77239     -656.64639     -203.19722    
    117000   58500          429.50786      476.88568      4240.0188      3452.183       4633.3381     -1181.1552      1792.2575      2634.9413     -1974.4181      20.352299      95.707375     -1583.2258     -2166.7697     -111.71592      113278         48.385495      48.385495      48.385495      0.54999999     52.694543      1084.227       293.73551    
    118000   59000          417.65477     -425.47376      2551.7102      3254.6113      4505.4724     -1250.8611      1792.4199      2635.8295     -1937.3342      19.760213     -0.82666504    -1587.756      -2172.9538     -111.71592      113278         48.385495      48.385495      48.385495      0.54999999     126.12255     -337.86834     -1064.6755    
    119000   59500          427.01046      180.02722      3666.1232      3368.7104      4606.3974     -1237.687       1734.4965      2669.0814     -1955.0421      21.159279      39.182008     -1579.8986     -2166.6655     -111.71592      113278         48.385495      48.385495      48.385495      0.54999999     684.51989     -552.61679      408.17857    
    120000   60000          422.62019     -306.22999      2870.8812      3376.7865      4559.0371     -1182.2506      1734.505       2665.4502     -1900.7558      20.200496      42.737897     -1578.4312     -2165.9572     -111.71592      113278         48.385495      48.385495      48.385495      0.54999999     339.31769     -909.45423     -348.55345    
    121000   60500          430.20226     -449.2834       2813.9355      3556.1711      4640.8291     -1084.658       1826.8804      2692.6754     -1937.6969      20.353139      62.364607     -1580.0718     -2169.1629     -111.71592      113278         48.385495      48.385495      48.385495      0.54999999     262.96102     -1163.7432     -447.06803    
    122000   61000          422.4418      -522.91731      2557.4502      3421.3323      4557.1127     -1135.7804      1793.1566      2700.4593     -1939.9307      22.046793      26.588868     -1576.3057     -2161.7956     -111.71592      113278         48.385495      48.385495      48.385495      0.54999999    -921.75724      146.69367     -793.68834    
    123000   61500          436.30946     -96.187253      3417.1586      3576.0641      4706.7108     -1130.6466      1750.7167      2753.5684     -1972.699       20.694094      40.414205     -1567.8471     -2155.4939     -111.71592      113278         48.385495      48.385495      48.385495      0.54999999    -470.44977     -398.8704       580.75841    
    124000   62000          416.43637      625.93262      4446.819       3412.7511      4492.3289     -1079.5777      1775.765       2780.72       -1947.8692      21.018547      38.632682     -1582.046      -2165.7989     -111.71592      113278         48.385495      48.385495      48.385495      0.54999999     635.59666      460.03215      782.16905    
    125000   62500          431.72027     -798.98785      2212.3897      3532.3523      4657.2047     -1124.8524      1829.6553      2658.3192     -1943.7204      19.565307      52.450317     -1575.5007     -2165.6215     -111.71592      113278         48.385495      48.385495      48.385495      0.54999999    -925.58286     -328.10604     -1143.2746    
    126000   63000          424.67319     -175.84567      3200.1529      3490.6576      4581.1839     -1090.5263      1845.2903      2696.1809     -1931.6844      19.568042      39.621542     -1586.5473     -2172.9554     -111.71592      113278         48.385495      48.385495      48.385495      0.54999999     164.94918     -262.76646     -429.71973    
    127000   63500          431.44683     -537.68953      2691.1186      3579.405       4654.255      -1074.8499      1823.5998      2710.0934     -1936.4224      20.657649      51.335313     -1578.8631     -2165.2507     -111.71592      113278         48.385495      48.385495      48.385495      0.54999999    -1024.4135     -415.72242     -172.93264    
    128000   64000          431.08886     -723.19505      2276.5691      3471.3187      4650.3933     -1179.0746      1821.8915      2628.7845     -1933.1829      20.424845      23.942873     -1576.3612     -2164.5743     -111.71592      113278         48.385495      48.385495      48.385495      0.54999999    -18.200133     -1335.8519     -815.53306    
    129000   64500          438.80918     -781.36648      2399.094       3689.9454      4733.6767     -1043.7313      1903.6758      2642.9476     -1926.6962      19.71265       53.199474     -1577.0104     -2159.5602     -111.71592      113278         48.385495      48.385495      48.385495      0.54999999    -752.36403     -1650.0415      58.306106    
    130000   65000          429.68627     -360.14581      2988.8196      3583.7961      4635.2627     -1051.4667      1854.1875      2703.3239     -1948.5159      19.400658      62.43098      -1582.5191     -2159.7747     -111.71592      113278         48.385495      48.385495      48.385495      0.54999999    -566.52443      91.095782     -605.00877    
    131000   65500          444.04168     -672.79145      2733.9617      3845.4424      4790.1225     -944.68016      1886.7372      2819.7067     -1984.8175      22.135917      44.508405     -1572.5027     -2160.4482     -111.71592      113278         48.385495      48.385495      48.385495      0.54999999    -609.08092     -407.4266      -1001.8668    
    132000   66000          433.94799     -443.75072      2978.2342      3711.3296      4681.2364     -969.90674      1845.6085      2786.6423     -1965.9676      21.146227      71.071168     -1571.8563     -2156.551      -111.71592      113278         48.385495      48.385495      48.385495      0.54999999    -998.93651      229.72723     -562.04288    
    133000   66500          440.5903       170.75404      4044.2232      3762.1301      4752.8906     -990.76049      1858.6115      2725.5369     -1946.5964      21.139221      84.834466     -1574.6842     -2159.6021     -111.71592      113278         48.385495      48.385495      48.385495      0.54999999     363.37656     -107.09855      255.98412    
    134000   67000          448.9883      -128.4008       3597.7467      3809.8704      4843.4845     -1033.614       1833.4219      2740.6931     -1983.3496      19.826591      91.308915     -1577.8701     -2157.6448     -111.71592      113278         48.385495      48.385495      48.385495      0.54999999    -70.234738      160.63124     -475.5989     
    135000   67500          444.60295     -576.8813       2900.2591      3853.292       4796.1772     -942.88521      1962.8353      2776.6075     -1990.2617      19.948755      26.896741     -1576.1095     -2162.8022     -111.71592      113278         48.385495      48.385495      48.385495      0.54999999    -1008.5218     -515.13488     -206.98726    
    136000   68000          438.09287     -275.97827      3269.3511      3725.2792      4725.9494     -1000.6702      1827.1067      2775.8397     -1966.3245      21.345         78.674993     -1571.4634     -2165.8485     -111.71592      113278         48.385495      48.385495      48.385495      0.54999999     518.39633     -78.005416     -1268.3257    
    137000   68500          442.87247     -341.6682       3346.749       3911.1997      4777.5096     -866.30993      1935.0126      2786.5568     -1923.7773      20.860029      49.913929     -1568.572      -2166.304      -111.71592      113278         48.385495      48.385495      48.385495      0.54999999     376.11291     -974.63903     -426.47848    
    138000   69000          447.57075     -29.923694      3798.5584      3847.9936      4828.1926     -980.19895      1842.5252      2816.0915     -1992.2447      21.843006      80.550364     -1580.7895     -2168.1748     -111.71592      113278         48.385495      48.385495      48.385495      0.54999999     301.61007     -344.87151     -46.509636    
    139000   69500          452.84248      380.05158      4481.0328      3853.1711      4885.0616     -1031.8905      1786.2558      2745.6921     -1957.6538      20.363465      115.73713     -1578.653      -2163.6323     -111.71592      113278         48.385495      48.385495      48.385495      0.54999999     511.6129       504.00581      124.53605    
    140000   70000          438.68089     -131.5928       3588.8095      3806.2065      4732.2927     -926.0862       1835.2959      2814.8206     -1956.0786      20.468724      112.86074     -1588.7875     -2164.666      -111.71592      113278         48.385495      48.385495      48.385495      0.54999999    -346.09037     -812.30234      763.6143     
    141000   70500          443.48575     -357.94131      3275.215       3866.5496      4784.1254     -917.57584      1866.1914      2778.8806     -1928.5798      20.762148      78.734013     -1573.4643     -2160.0999     -111.71592      113278         48.385495      48.385495      48.385495      0.54999999    -295.47284     -42.442161     -735.90892    
    142000   71000          454.31916      351.343        4578.6716      3998.2377      4900.9914     -902.75364      1816.3987      2772.7046     -1902.9349      20.43995       131.57013     -1579.437      -2161.4951     -111.71592      113278         48.385495      48.385495      48.385495      0.54999999     176.10217      124.497        753.42984    
    143000   71500          457.83162      219.71512      4429.4089      4066.43        4938.8822     -872.45223      1862.3484      2788.7705     -1941.165       20.306614      135.55665     -1582.8201     -2155.4492     -111.71592      113278         48.385495      48.385495      48.385495      0.54999999     459.24102      2.9998255      196.90453    
    144000   72000          447.04847      501.43675      4761.2698      3932.8745      4822.5584     -889.68396      1878.8068      2783.7077     -1936.5059      20.884748      93.464696     -1572.6399     -2157.4022     -111.71592      113278         48.385495      48.385495      48.385495      0.54999999     263.71938     -239.40152      1479.9924    
    145000   72500          452.26335     -881.61959      2595.6215      4052.0953      4878.8143     -826.71894      1883.3798      2844.9337     -1937.3511      20.567564      85.896125     -1567.7028     -2156.4422     -111.71592      113278         48.385495      48.385495      48.385495      0.54999999    -1039.0052     -650.49464     -955.35894    
    146000   73000          450.68276      408.55369      4614.0502      3939.1018      4861.7635     -922.66171      1819.9203      2774.0099     -1930.2564      20.054619      126.59417     -1577.6107     -2155.3735     -111.71592      113278         48.385495      48.385495      48.385495      0.54999999     663.41078     -109.19119      671.44148    
    147000   73500          452.34852     -97.92544       3745.8846      3907.6617      4879.733      -972.07135      1948.4676      2727.8181     -1965.8053      20.538211      22.090571     -1567.339      -2157.8415     -111.71592      113278         48.385495      48.385495      48.385495      0.54999999    -923.77007     -87.513556      717.50731    
    148000   74000          451.47164     -18.443179      3926.8307      3957.2997      4870.2736     -912.97392      1864.8515      2791.5979     -1908.1736      21.987021      35.978602     -1560.9025     -2158.3128     -111.71592      113278         48.385495      48.385495      48.385495      0.54999999     241.98866     -165.77341     -131.54478    
    149000   74500          463.7921      -566.15771      3219.9812      4155.2983      5003.1812     -847.88287      1912.305       2815.0382     -1959.1726      21.633724      77.248864     -1561.804      -2153.1321     -111.71592      113278         48.385495      48.385495      48.385495      0.54999999    -457.80731     -74.782245     -1165.8836    
    150000   75000          439.99214      88.693384      4100.0734      3953.5481      4746.4379     -792.88988      1872.2246      2871.7904     -1941.9872      22.144997      93.507788     -1558.1278     -2152.4426     -111.71592      113278         48.385495      48.385495      48.385495      0.54999999    -940.34115      580.60836      625.81294    
    151000   75500          463.76094      200.59311      4487.3044      4155.9159      5002.845      -846.92917      1951.5232      2787.964      -1928.0322      20.496308      38.449405     -1563.7869     -2153.543      -111.71592      113278         48.385495      48.385495      48.385495      0.54999999     307.97835     -255.69952      549.50051    
    152000   76000          452.71252     -121.42753      3839.378       4039.9815      4883.6596     -843.67808      1858.6417      2857.2984     -1930.7096      20.808978      70.771853     -1565.0787     -2155.4108     -111.71592      113278         48.385495      48.385495      48.385495      0.54999999     208.63121     -304.1226      -268.7912     
    153000   76500          456.9583      -736.46549      2879.8         4096.473       4929.4613     -832.98827      1945.131       2802.4236     -1922.9259      19.351034      29.003312     -1555.486      -2150.4852     -111.71592      113278         48.385495      48.385495      48.385495      0.54999999    -36.030321     -1266.3203     -907.04591    
    154000   77000          468.40417     -274.76275      3730.4735      4184.3935      5052.9341     -868.54055      1870.3193      2833.0945     -1896.8387      20.370402      32.202575     -1568.0523     -2159.6363     -111.71592      113278         48.385495      48.385495      48.385495      0.54999999    -686.14666      63.445612     -201.5872     
    155000   77500          469.1716      -115.13608      3991.1336      4181.3434      5061.2128     -879.8694       1908.3575      2786.2271     -1923.4732      20.526663      61.386376     -1572.5275     -2160.3663     -111.71592      113278         48.385495      48.385495      48.385495      0.54999999    -310.74162     -396.35183      361.68522    
    156000   78000          470.29448     -490.11767      3505.1139      4314.8096      5073.3259     -758.51635      1910.6333      2864.4002     -1911.5054      20.366543      85.21556      -1568.7983     -2158.8283     -111.71592      113278         48.385495      48.385495      48.385495      0.54999999    -247.84583     -420.98207     -801.5251     
    157000   78500          464.48885     -111.31526      4161.0804      4344.978       5010.6974     -665.71944      1988.8879      2854.4863     -1918.8435      21.209918      116.42097     -1569.8939     -2157.9871     -111.71592      113278         48.385495      48.385495      48.385495      0.54999999     790.44315     -1026.5905     -97.798461    
    158000   79000          461.03345      85.238508      4313.6876      4172.8699      4973.4221     -800.55224      1940.7755      2830.7476     -1948.0624      19.325586      98.903907     -1578.2737     -2163.9687     -111.71592      113278         48.385495      48.385495      48.385495      0.54999999     359.7931       312.55005     -416.62762    
    159000   79500          456.78744      520.77541      4918.4957      4058.1521      4927.618      -869.46597      1802.2069      2884.5518     -1939.0716      20.787904      104.08007     -1578.1272     -2163.8938     -111.71592      113278         48.385495      48.385495      48.385495      0.54999999     591.35468      821.04142      149.93014    
    160000   80000          468.04643     -404.60369      3637.6042      4306.0271      5049.075      -743.0479       1970.3595      2816.7303     -1928.414       19.272977      120.57957     -1581.6364     -2159.9398     -111.71592      113278         48.385495      48.385495      48.385495      0.54999999    -810.18325     -258.0175      -145.61031    
    161000   80500          471.4437       228.84302      4677.6144      4299.5558      5085.7232     -786.16737      1873.4256      2918.5226     -1902.619       20.457478      38.902445     -1574.7121     -2160.1444     -111.71592      113278         48.385495      48.385495      48.385495      0.54999999     274.12368      163.06875      249.33662    
    162000   81000          467.51722      92.183566      4429.3181      4277.0269      5043.3661     -766.33927      1921.7176      2850.8695     -1921.691       19.705345      85.368029     -1566.3445     -2155.9643     -111.71592      113278         48.385495      48.385495      48.385495      0.54999999     57.472121     -265.91545      484.99402    
    163000   81500          470.56655     -628.3284       3185.4307      4223.4565      5076.261      -852.80446      1963.1014      2791.7345     -1924.0185      21.087474      23.600478     -1566.0962     -2162.2135     -111.71592      113278         48.385495      48.385495      48.385495      0.54999999    -658.93685     -213.35543     -1012.6929    
    164000   82000          476.37987     -71.565184      4324.5697      4442.7985      5138.9724     -696.17391      1936.2486      2890.9076     -1919.0252      21.173019      115.28889     -1576.1268     -2164.64       -111.71592      113278         48.385495      48.385495      48.385495      0.54999999     869.99106      5.2947894     -1089.9814    
    165000   82500          471.01049     -379.32343      3615.673       4242.3318      5081.0499     -838.7181       1928.6091      2768.32       -1910.7573      20.18084       85.783505     -1567.7698     -2163.0845     -111.71592      113278         48.385495      48.385495      48.385495      0.54999999    -385.45325     -115.00821     -637.50884    
    166000   83000          469.35039     -232.77397      3959.4817      4344.0344      5063.1415     -719.10713      1974.4072      2800.6919     -1903.9027      19.540807      122.06081     -1566.3594     -2165.5457     -111.71592      113278         48.385495      48.385495      48.385495      0.54999999    -497.36503      820.40339     -1021.3603    
    167000   83500          472.6548      -974.28482      2850.2083      4459.7692      5098.7881     -639.01891      2017.4605      2899.8696     -1919.4369      20.464127      74.780097     -1565.7899     -2166.3664     -111.71592      113278         48.385495      48.385495      48.385495      0.54999999    -989.0127      -969.43972     -964.40205    
    168000   84000          470.33473     -498.05636      3629.3702      4452.181       5073.7602     -621.57919      1916.9965      2916.4867     -1912.0233      20.23053       172.47304     -1571.344      -2164.3986     -111.71592      113278         48.385495      48.385495      48.385495      0.54999999    -182.60656     -589.77745     -721.78508    
    169000   84500          470.50073      99.353967      4537.3937      4373.2566      5075.5509     -702.29428      1957.7268      2827.9804     -1946.1683      20.059253      177.35602     -1572.6313     -2166.6171     -111.71592      113278         48.385495      48.385495      48.385495      0.54999999     86.205368      572.57738     -360.72085    
    170000   85000          472.96608     -550.93165      3607.1154      4517.2784      5102.146      -584.86762      1999.2563      2903.3788     -1896.6097      19.76527       113.45755     -1559.194      -2164.9219     -111.71592      113278         48.385495      48.385495      48.385495      0.54999999    -332.5375      -417.97933     -902.27813    
    171000   85500          469.26202      292.7703       4790.8881      4307.2189      5062.1883     -754.9694       1957.4082      2799.007      -1936.1291      20.156541      147.44178     -1573.9716     -2168.8822     -111.71592      113278         48.385495      48.385495      48.385495      0.54999999     341.21517      486.63648      50.459248    
    172000   86000          478.4172       284.69157      5049.1801      4578.8573      5160.9502     -582.09295      1979.5127      2929.2033     -1936.0132      20.599206      166.13518     -1573.7829     -2167.7473     -111.71592      113278         48.385495      48.385495      48.385495      0.54999999    -74.758109      580.53385      348.29896    
[...]
    255000   127500         570.81081      77.373796      6844.5275      6716.7026      6157.6511      559.05158      2388.3166      3437.4731     -1873.4572      22.480455      295.17598     -1559.6163     -2151.3211     -111.71592      113278         48.385495      48.385495      48.385495      0.54999999    -582.8424       297.34452      517.61926    
    256000   128000         560.54889     -59.805681      6466.8919      6565.6935      6046.95        518.74347      2376.711       3337.484      -1889.1552      22.584858      370.37088     -1550.969      -2148.2831     -111.71592      113278         48.385495      48.385495      48.385495      0.54999999     1098.4502     -936.55217     -341.31504    
    257000   128500         565.68887     -986.1923       4907.9562      6537.1887      6102.3978      434.79088      2432.509       3278.919      -1892.6508      22.258557      317.42863     -1559.6032     -2164.0704     -111.71592      113278         48.385495      48.385495      48.385495      0.54999999    -711.79994     -821.32575     -1425.4512    
    258000   129000         558.38581      766.87618      7806.9093      6539.9966      6023.6157      516.38082      2329.3606      3452.9906     -1926.0086      21.889121      375.9824      -1573.5437     -2164.2895     -111.71592      113278         48.385495      48.385495      48.385495      0.54999999     520.92728      564.21824      1215.483     
    259000   129500         569.79744     -129.10895      6374.0599      6587.3535      6146.7192      440.63429      2366.0226      3284.0986     -1855.0688      22.419986      333.58597     -1550.7924     -2159.6316     -111.71592      113278         48.385495      48.385495      48.385495      0.54999999     181.48332     -620.81619      52.006011    
    260000   130000         569.58814     -569.52169      5791.9258      6732.8003      6144.4615      588.33886      2414.3421      3401.0807     -1879.7008      22.207367      336.80802     -1551.8106     -2154.5879     -111.71592      113278         48.385495      48.385495      48.385495      0.54999999    -37.013753     -1582.677      -88.874309    
    261000   130500         570.92156     -201.65257      6418.9272      6752.066       6158.8458      593.22015      2428.4304      3325.3726     -1840.3924      19.822738      372.26329     -1561.5007     -2150.7757     -111.71592      113278         48.385495      48.385495      48.385495      0.54999999    -964.73983     -21.881695      381.66382    
    262000   131000         564.2581       290.25497      7100.4277      6620.9139      6086.9633      533.95057      2331.2633      3454.7821     -1860.4946      22.620049      290.91123     -1552.8043     -2152.3271     -111.71592      113278         48.385495      48.385495      48.385495      0.54999999     558.48679     -625.20427      937.48239    
    263000   131500         570.34351     -597.08734      5780.7598      6767.174       6152.61        614.56399      2424.7097      3458.3069     -1894.426       23.355733      301.04524     -1544.6347     -2153.7928     -111.71592      113278         48.385495      48.385495      48.385495      0.54999999    -72.152633     -419.11534     -1299.994     
    264000   132000         585.16409     -323.9615       6215.0546      6750.253       6312.4877      437.76526      2298.1687      3384.4498     -1869.0237      20.853314      315.17518     -1554.3936     -2157.4644     -111.71592      113278         48.385495      48.385495      48.385495      0.54999999    -436.09601      333.23978     -869.02827    
    265000   132500         569.85894      185.30589      6977.5999      6671.4666      6147.3827      524.08389      2450.6194      3281.8407     -1848.5124      21.536747      341.26304     -1566.932      -2155.7316     -111.71592      113278         48.385495      48.385495      48.385495      0.54999999     910.21842      303.21326     -657.51402    
    266000   133000         570.89418     -375.22806      6209.7733      6829.6664      6158.5504      671.11598      2446.6498      3435.5091     -1863.727       23.177303      335.56235     -1556.2121     -2149.8435     -111.71592      113278         48.385495      48.385495      48.385495      0.54999999    -340.52227     -646.03797     -139.12394    
    267000   133500         581.65515      233.14753      7478.1606      7092.9908      6274.6349      818.35588      2496.9894      3473.7826     -1854.9966      23.457597      375.17364     -1549.3678     -2146.683      -111.71592      113278         48.385495      48.385495      48.385495      0.54999999     886.99293     -576.37053      388.82018    
    268000   134000         581.13803     -367.09386      6138.6         6745.055       6269.0565      475.9985       2324.8523      3361.974      -1879.4416      22.9706        352.08985     -1555.0599     -2151.3868     -111.71592      113278         48.385495      48.385495      48.385495      0.54999999    -832.48564      678.79768     -947.59363    
    269000   134500         578.15148     -52.623366      6866.7405      6953.6766      6236.8389      716.83766      2434.1134      3519.0405     -1869.0779      23.490641      338.49417     -1564.5137     -2164.7094     -111.71592      113278         48.385495      48.385495      48.385495      0.54999999     230.65686     -0.62176333    -387.90519    
    270000   135000         574.42792     -80.246725      6676.3718      6808.9429      6196.6708      612.27208      2488.9969      3391.0842     -1870.0687      23.754096      291.95732     -1556.0318     -2157.4199     -111.71592      113278         48.385495      48.385495      48.385495      0.54999999    -21.154562      349.43894     -569.02455    
    271000   135500         563.93375     -968.01046      5166.1356      6765.3309      6083.4644      681.86653      2420.9817      3490.5826     -1867.5004      22.668438      317.18506     -1549.0128     -2153.0381     -111.71592      113278         48.385495      48.385495      48.385495      0.54999999    -637.54592     -1140.7122     -1125.7732    
    272000   136000         577.4491       8.1363186      6988.2959      6974.8544      6229.2619      745.5925       2468.6604      3436.8558     -1838.1163      22.330725      363.75296     -1552.3023     -2155.5888     -111.71592      113278         48.385495      48.385495      48.385495      0.54999999    -292.27764      224.99675      91.689845    
    273000   136500         585.40189     -471.25077      6147.4274      6925.9541      6315.0531      610.90101      2456.1626      3385.0112     -1862.428       21.481674      333.58209     -1560.5667     -2162.3419     -111.71592      113278         48.385495      48.385495      48.385495      0.54999999    -205.45983     -588.4356      -619.85689    
    274000   137000         579.4102      -310.28289      6541.0236      7053.6244      6250.4174      803.20693      2454.0159      3555.0784     -1886.1978      23.524992      379.11307     -1561.2003     -2161.1274     -111.71592      113278         48.385495      48.385495      48.385495      0.54999999    -143.36126     -397.6492      -389.83822    
    275000   137500         581.21197     -225.35251      6599.1271      6971.4192      6269.8541      701.56517      2476.7051      3492.4397     -1883.8827      23.227806      319.95352     -1562.4247     -2164.4536     -111.71592      113278         48.385495      48.385495      48.385495      0.54999999     375.82602     -279.95152     -771.93204    
    276000   138000         602.10979      22.118811      7365.0563      7328.5151      6495.2904      833.22474      2461.7043      3580.2287     -1848.4708      23.163471      334.55531     -1556.5314     -2161.4249     -111.71592      113278         48.385495      48.385495      48.385495      0.54999999    -32.262068     -181.42587      280.04437    
    277000   138500         580.98126      173.26903      7314.8669      7028.6189      6267.3653      761.25363      2382.0485      3554.6274     -1863.5144      23.298403      378.50533     -1553.5379     -2160.1737     -111.71592      113278         48.385495      48.385495      48.385495      0.54999999     24.349729     -264.64584      760.10319    
    278000   139000         584.28029     -658.57942      6015.8563      7103.8581      6302.9538      800.9043       2490.4991      3526.304      -1878.6129      22.005717      371.80703     -1567.2548     -2163.8438     -111.71592      113278         48.385495      48.385495      48.385495      0.54999999    -732.43198     -870.11253     -373.19375    
    279000   139500         594.43025     -229.78934      6915.8273      7295.4492      6412.447       883.0022       2482.6927      3566.857      -1858.4427      22.905943      397.1783      -1565.2085     -2162.9804     -111.71592      113278         48.385495      48.385495      48.385495      0.54999999    -274.07917     -193.0445      -222.24434    
    280000   140000         587.44942      102.5674       7300.892       7131.4462      6337.1409      794.30532      2411.8049      3545.8578     -1856.1059      22.810207      386.30512     -1559.6275     -2156.7393     -111.71592      113278         48.385495      48.385495      48.385495      0.54999999     5.1219874      615.89761     -313.3174     
    281000   140500         597.92873     -41.946155      7130.2273      7199.5242      6450.1871      749.33713      2482.6232      3491.4155     -1882.7727      23.232337      349.352       -1555.0117     -2159.5015     -111.71592      113278         48.385495      48.385495      48.385495      0.54999999    -319.51283      156.12929      37.545073    
    282000   141000         589.74504     -420.80738      6612.4518      7307.6439      6361.905       945.73886      2575.7752      3597.0541     -1881.196       24.030333      344.44039     -1554.1593     -2160.2058     -111.71592      113278         48.385495      48.385495      48.385495      0.54999999    -86.582175     -620.82809     -555.01188    
    283000   141500         583.59148     -660.97518      6031.2432      7123.2029      6295.5232      827.67971      2564.3722      3421.0505     -1832.7874      21.105434      368.37968     -1557.1406     -2157.3001     -111.71592      113278         48.385495      48.385495      48.385495      0.54999999    -1291.5136      475.70635     -1167.1183    
    284000   142000         590.50478      131.61764      7618.7326      7401.2945      6370.1007      1031.1938      2598.8873      3570.9441     -1853.4668      23.728353      390.95038     -1548.0048     -2151.8448     -111.71592      113278         48.385495      48.385495      48.385495      0.54999999    -653.54207      712.58082      335.81418    
    285000   142500         601.46595     -190.24776      7108.4521      7422.7496      6488.345       934.40461      2454.2793      3640.4132     -1842.2287      24.457744      368.41324     -1554.8583     -2156.0719     -111.71592      113278         48.385495      48.385495      48.385495      0.54999999    -26.170514     -223.41434     -321.15841    
    286000   143000         601.02669     -473.73665      6521.7987      7304.4322      6483.6064      820.82578      2545.7552      3412.4078     -1870.1473      23.001507      423.32834     -1557.7038     -2155.816      -111.71592      113278         48.385495      48.385495      48.385495      0.54999999    -1090.8701     -954.57923      624.23938    
    287000   143500         592.38292     -378.20028      6573.349       7198.1523      6390.3613      807.79095      2484.2861      3500.5952     -1870.6295      23.11861       383.02984     -1555.6785     -2156.9308     -111.71592      113278         48.385495      48.385495      48.385495      0.54999999    -876.93706      187.25038     -444.91417    
    288000   144000         607.66873      900.03739      8871.411       7384.5101      6555.2577      829.25243      2395.574       3528.7589     -1831.2726      22.953704      412.7582      -1553.0569     -2146.4627     -111.71592      113278         48.385495      48.385495      48.385495      0.54999999     374.19142      1298.7812      1027.1396    
    289000   144500         589.40569      349.99464      7843.8797      7265.6733      6358.2442      907.4291       2413.6869      3647.5875     -1878.182       23.88792       419.76967     -1561.6707     -2157.6502     -111.71592      113278         48.385495      48.385495      48.385495      0.54999999     827.11997     -368.29282      591.15678    
    290000   145000         603.11309      88.624855      7548.0489      7401.6368      6506.1135      895.52324      2503.023       3570.8216     -1890.7202      24.692563      418.49728     -1568.0279     -2162.7632     -111.71592      113278         48.385495      48.385495      48.385495      0.54999999    -190.59439      527.04894     -70.579985    
    291000   145500         605.78524     -513.97054      6607.4093      7456.5109      6534.9395      921.57139      2518.7533      3520.2428     -1830.8667      23.382041      397.30679     -1555.1624     -2152.0845     -111.71592      113278         48.385495      48.385495      48.385495      0.54999999     568.89719     -683.93221     -1426.8766    
    292000   146000         601.20601      681.10205      8682.1002      7556.8901      6485.5408      1071.3492      2494.3816      3676.5677     -1874.8132      24.575943      448.08561     -1551.7195     -2145.7289     -111.71592      113278         48.385495      48.385495      48.385495      0.54999999     1166.4413      534.34382      342.52101    
    293000   146500         600.10811      206.20444      7640.1188      7299.4601      6473.6972      825.76291      2557.6274      3390.4749     -1865.2944      22.256417      407.93416     -1548.2278     -2139.0078     -111.71592      113278         48.385495      48.385495      48.385495      0.54999999     259.01188      460.50131     -100.89986    
    294000   147000         610.78077      28.322996      7596.8265      7550.0357      6588.829       961.2067       2491.8548      3498.3089     -1842.5055      22.339674      495.38787     -1558.8448     -2145.3342     -111.71592      113278         48.385495      48.385495      48.385495      0.54999999     373.3643      -442.10525      153.70994    
    295000   147500         616.82904     -574.03847      6714.4974      7662.8339      6654.075       1008.7589      2530.3609      3541.9976     -1827.4529      19.987803      430.32818     -1543.3917     -2143.071      -111.71592      113278         48.385495      48.385495      48.385495      0.54999999    -578.03935     -316.67485     -827.40121    
    296000   148000         593.18321     -629.96317      6388.5614      7429.2879      6398.9945      1030.2934      2607.022       3552.9563     -1862.7895      21.877366      415.28022     -1553.4638     -2150.5892     -111.71592      113278         48.385495      48.385495      48.385495      0.54999999    -1535.307      -758.50862      403.92608    
    297000   148500         622.97001     -136.13916      7297.6297      7522.5375      6720.3211      802.21637      2505.3342      3443.7054     -1870.6886      20.834039      418.90673     -1557.2772     -2158.5983     -111.71592      113278         48.385495      48.385495      48.385495      0.54999999     117.34657      391.8128      -917.57685    
    298000   149000         601.53201     -777.98751      6114.4406      7399.7097      6489.0575      910.65216      2486.9045      3572.7325     -1901.0293      23.550475      443.38034     -1560.1127     -2154.7737     -111.71592      113278         48.385495      48.385495      48.385495      0.54999999    -964.80384     -630.74386     -738.41484    
    299000   149500         608.7039      -118.53278      7300.2445      7496.0658      6566.4247      929.64105      2500.0876      3550.8576     -1859.0286      20.761732      425.26883     -1557.8064     -2150.4997     -111.71592      113278         48.385495      48.385495      48.385495      0.54999999     491.13121      169.57869     -1016.3082    
    300000   150000         604.32363      125.14926      7795.1891      7588.4371      6519.1723      1069.2648      2484.4058      3672.2273     -1853.0108      23.862444      449.63266     -1553.891      -2153.9617     -111.71592      113278         48.385495      48.385495      48.385495      0.54999999    -101.08804      973.47541     -496.93959    
Loop time of 448.708 on 1 procs for 300000 steps with 3620 atoms

Performance: 28.883 ns/day, 0.831 hours/ns, 668.586 timesteps/s, 2.420 Matom-step/s
100.0% CPU use with 1 MPI tasks x 1 OpenMP threads

MPI task timing breakdown:
Section |  min time  |  avg time  |  max time  |%varavg| %total
---------------------------------------------------------------
Pair    | 5.2339     | 5.2339     | 5.2339     |   0.0 |  1.17
Bond    | 59.884     | 59.884     | 59.884     |   0.0 | 13.35
Kspace  | 308.47     | 308.47     | 308.47     |   0.0 | 68.75
Neigh   | 12.261     | 12.261     | 12.261     |   0.0 |  2.73
Comm    | 5.3608     | 5.3608     | 5.3608     |   0.0 |  1.19
Output  | 2.1342     | 2.1342     | 2.1342     |   0.0 |  0.48
Modify  | 44.641     | 44.641     | 44.641     |   0.0 |  9.95
Other   |            | 10.72      |            |       |  2.39

Nlocal:           3620 ave        3620 max        3620 min
Histogram: 1 0 0 0 0 0 0 0 0 0
Nghost:           6097 ave        6097 max        6097 min
Histogram: 1 0 0 0 0 0 0 0 0 0
Neighs:              0 ave           0 max           0 min
Histogram: 1 0 0 0 0 0 0 0 0 0
FullNghs:   1.0163e+06 ave  1.0163e+06 max  1.0163e+06 min
Histogram: 1 0 0 0 0 0 0 0 0 0

Total # of neighbors = 1016302
Ave neighs/atom = 280.74641
Ave special neighs/atom = 5.9723757
Neighbor list builds = 5154
Dangerous builds = 0

# --- Cleanup ---
unfix nvt_fix

undump dump_nvt

# --- Write Output ---
write_dump all custom nvt_softheat_last.dump id type mol x y z xu yu zu vx vy vz modify sort id
write_data /home/alexzhao/PolyJarvis/data/PVC4/lammps/equil/nvt_softheat/nvt_softheat_out.data
System init for write_data ...
PPPM Kokkos initialization ...
  using 12-bit tables for long-range coulomb
  G vector (1/distance) = 0.28916327
  grid = 30 30 30
  stencil order = 5
  estimated absolute RMS force accuracy = 0.00033761496
  estimated relative force accuracy = 1.0167174e-06
  using double precision cuFFT
  3d grid and FFT values/proc = 50653 27000
Generated 6 of 6 mixed pair_coeff terms from sixthpower/sixthpower mixing rule

print "STAGE COMPLETE: NVT T=300.0->610.0K steps=300000"
STAGE COMPLETE: NVT T=300.0->610.0K steps=300000
quit
10.72      |            |       |  2.39

Nlocal:           3620 ave        3620 max        3620 min
Histogram: 1 0 0 0 0 0 0 0 0 0
Nghost:           6097 ave        6097 max        6097 min
Histogram: 1 0 0 0 0 0 0 0 0 0
Neighs:              0 ave           0 max           0 min
Histogram: 1 0 0 0 0 0 0 0 0 0
FullNghs:   1.0163e+06 ave  1.0163e+06 max  1.0163e+06 min
Histogram: 1 0 0 0 0 0 0 0 0 0

Total # of neighbors = 1016302
Ave neighs/atom = 280.74641
Ave special neighs/atom = 5.9723757
Neighbor list builds = 5154
Dangerous builds = 0
System init for write_data ...
PPPM Kokkos initialization ...
  using 12-bit tables for long-range coulomb
  G vector (1/distance) = 0.28916327
  grid = 30 30 30
  stencil order = 5
  estimated absolute RMS force accuracy = 0.00033761496
  estimated relative force accuracy = 1.0167174e-06
  using double precision cuFFT
  3d grid and FFT values/proc = 50653 27000
Generated 6 of 6 mixed pair_coeff terms from sixthpower/sixthpower mixing rule
STAGE COMPLETE: NVT T=300.0->610.0K steps=300000
