units real
atom_style full
boundary p p p

# --- Force Field Styles ---
pair_style lj/class2/coul/long 9.5 9.5
kspace_style pppm 1e-6
dielectric 1.000000
bond_style class2
angle_style class2
dihedral_style class2
improper_style class2
special_bonds lj/coul 0 0 1
pair_modify mix sixthpower tail yes
neighbor 2.0 bin
neigh_modify delay 0 every 1 check yes
neigh_modify one 4000
# KOKKOS: package loaded via -pk kokkos on the command line

read_data /home/alexzhao/PolyJarvis/data/PVC4/lammps/equil/npt_prod300/npt_prod300_out.data
Reading data file ...
  orthogonal box = (6.2425676 6.2425676 6.2425676) to (42.142927 42.142927 42.142927)
  1 by 1 by 1 MPI processor grid
  reading atoms ...
  3620 atoms
  reading velocities ...
  3620 velocities
  scanning bonds ...
  4 = max bonds/atom
  scanning angles ...
  12 = max angles/atom
  scanning dihedrals ...
  24 = max dihedrals/atom
  scanning impropers ...
  10 = max impropers/atom
  orthogonal box = (6.2425676 6.2425676 6.2425676) to (42.142927 42.142927 42.142927)
  1 by 1 by 1 MPI processor grid
  reading bonds ...
  3610 bonds
  reading angles ...
  7200 angles
  reading dihedrals ...
  10710 dihedrals
  reading impropers ...
  4800 impropers
Finding 1-2 1-3 1-4 neighbors ...
  special bond factors lj:    0        0        1       
  special bond factors coul:  0        0        1       
     4 = max # of 1-2 neighbors
     6 = max # of 1-3 neighbors
    10 = max # of special neighbors
  special bonds CPU = 0.002 seconds
  read_data CPU = 1.397 seconds
include /home/alexzhao/PolyJarvis/data/PVC4/lammps/cell/emc_build.params
# LAMMPS parameters created by EMC v9.4.4, build Jul 31 2025 20:33:44

# Variables

variable	seed		index	472913
variable	ntotal		index	3620
variable	fshape		index	1
variable	output		index	emc_build
variable	field		index	pcff/pcff
variable	location1	index	~/emc/field/
variable	nav		index	0.6022141179
variable	temperature	index	300
variable	radius		index	5
variable	nrelax		index	100
variable	weight_nonbond	index	0.0001
variable	weight_bond	index	0.0001
variable	weight_focus	index	1
variable	cutoff		index	9.5
variable	charge_cutoff	index	9.5
variable	kappa		index	4
variable	density1	index	0.55
variable	lprevious	index	0
variable	lphase		index	48.3854950346
variable	f_poly		index	10
variable	chem_repeat	index	*CC(Cl)*
variable	chem_cap	index	*[H]
variable	lg_repeat	index	6
variable	lg_cap		index	1
variable	norm_poly	index	100
variable	l_poly		index	362
variable	mg_repeat	index	50.48806
variable	mg_cap		index	1.00797
variable	m_poly		index	3031.29954
variable	n_poly		index	10
variable	mtotal		index	37519.6854
variable	nphase1		index	3620
variable	mphase1		index	37519.6854
variable	vphase1		index	113277.998291
variable	lbox		index	48.3854950346
variable	lphase1		index	48.3854950346
variable	lxx		index	48.3854950346
variable	lyy		index	48.3854950346
variable	lzz		index	48.3854950346
variable	lzy		index	0
variable	lzx		index	0
variable	lyx		index	0
variable	vtotal		index	113277.998291
variable	nl_poly		index	10

# Types

variable	type_c		index	1
variable	type_c1		index	2
variable	type_cl		index	3
variable	type_hc		index	4

variable	type_bond_c_c	index	1
variable	type_bond_c_c1	index	2
variable	type_bond_c_cl	index	3
variable	type_bond_c_hc	index	4
variable	type_bond_c1_cl	index	5
variable	type_bond_c1_hc	index	6

variable	type_angle_c_c_c1 index	1
variable	type_angle_c_c_cl index	2
variable	type_angle_c_c_hc index	3
variable	type_angle_c_c1_c index	4
variable	type_angle_c_c1_cl index	5
variable	type_angle_c_c1_hc index	6
variable	type_angle_c1_c_c1 index	7
variable	type_angle_c1_c_hc index	8
variable	type_angle_cl_c_hc index	9
variable	type_angle_cl_c1_hc index	10
variable	type_angle_hc_c_hc index	11

# Clusters

variable	n0_poly		index	1
variable	n1_poly		index	10
variable	nl_poly		index	10

# Flags

variable	flag_charged	index	1

# Masses

mass		1    12.01115  # c
mass		2    12.01115  # c1
mass		3    35.45300  # cl
mass		4     1.00797  # hc

# Potentials

pair_modify	mix sixthpower tail yes
special_bonds	lj/coul 0 0 1

# Pair Coeffs

pair_coeff	 1  1    0.05400    4.01000  # c,c
pair_coeff	 2  2    0.05400    4.01000  # c1,c1
pair_coeff	 3  3    0.22470    3.92000  # cl,cl
pair_coeff	 4  4    0.02000    2.99500  # hc,hc

# Bond Coeffs

bond_coeff	1    1.53000  299.67000 -501.77000  679.81000  # c,c
bond_coeff	2    1.53000  299.67000 -501.77000  679.81000  # c,c1
bond_coeff	3    1.79000  194.31900    0.00000    0.00000  # c,cl
bond_coeff	4    1.10100  345.00000 -691.89000  844.60000  # c,hc
bond_coeff	5    1.79000  194.31900    0.00000    0.00000  # c1,cl
bond_coeff	6    1.10100  345.00000 -691.89000  844.60000  # c1,hc

# Angle Coeffs

angle_coeff	 1  112.67000   39.51600   -7.44300   -9.55830  # c,c,c1
angle_coeff	 2  107.00000   61.17450    0.00000    0.00000  # c,c,cl
angle_coeff	 3  110.77000   41.45300  -10.60400    5.12900  # c,c,hc
angle_coeff	 4  112.67000   39.51600   -7.44300   -9.55830  # c,c1,c
angle_coeff	 5  107.00000   61.17450    0.00000    0.00000  # c,c1,cl
angle_coeff	 6  110.77000   41.45300  -10.60400    5.12900  # c,c1,hc
angle_coeff	 7  112.67000   39.51600   -7.44300   -9.55830  # c1,c,c1
angle_coeff	 8  110.77000   41.45300  -10.60400    5.12900  # c1,c,hc
angle_coeff	 9  107.99680   51.09870    0.00000    0.00000  # cl,c,hc
angle_coeff	10  107.99680   51.09870    0.00000    0.00000  # cl,c1,hc
angle_coeff	11  107.66000   39.64100  -12.92100   -2.43180  # hc,c,hc

# BondBond Coeffs

angle_coeff	 1 bb    0.00000    1.53000    1.53000  # c,c,c1
angle_coeff	 2 bb    0.00000    1.53000    1.79000  # c,c,cl
angle_coeff	 3 bb    3.38720    1.53000    1.10100  # c,c,hc
angle_coeff	 4 bb    0.00000    1.53000    1.53000  # c,c1,c
angle_coeff	 5 bb    0.00000    1.53000    1.79000  # c,c1,cl
angle_coeff	 6 bb    3.38720    1.53000    1.10100  # c,c1,hc
angle_coeff	 7 bb    0.00000    1.53000    1.53000  # c1,c,c1
angle_coeff	 8 bb    3.38720    1.53000    1.10100  # c1,c,hc
angle_coeff	 9 bb    0.00000    1.79000    1.10100  # cl,c,hc
angle_coeff	10 bb    0.00000    1.79000    1.10100  # cl,c1,hc
angle_coeff	11 bb    5.33160    1.10100    1.10100  # hc,c,hc

# BondAngle Coeffs

angle_coeff	 1 ba    8.01600    8.01600    1.53000    1.53000  # c,c,c1
angle_coeff	 2 ba    0.00000    0.00000    1.53000    1.79000  # c,c,cl
angle_coeff	 3 ba   20.75400   11.42100    1.53000    1.10100  # c,c,hc
angle_coeff	 4 ba    8.01600    8.01600    1.53000    1.53000  # c,c1,c
angle_coeff	 5 ba    0.00000    0.00000    1.53000    1.79000  # c,c1,cl
angle_coeff	 6 ba   20.75400   11.42100    1.53000    1.10100  # c,c1,hc
angle_coeff	 7 ba    8.01600    8.01600    1.53000    1.53000  # c1,c,c1
angle_coeff	 8 ba   20.75400   11.42100    1.53000    1.10100  # c1,c,hc
angle_coeff	 9 ba    0.00000    0.00000    1.79000    1.10100  # cl,c,hc
angle_coeff	10 ba    0.00000    0.00000    1.79000    1.10100  # cl,c1,hc
angle_coeff	11 ba   18.10300   18.10300    1.10100    1.10100  # hc,c,hc

# Dihedral Coeffs

dihedral_coeff	 1    0.00000    0.00000    0.05140    0.00000   -0.14300    0.00000  # c,c,c1,c
dihedral_coeff	 2    0.00000    0.00000    0.00000    0.00000    0.15000    0.00000  # c,c,c1,cl
dihedral_coeff	 3    0.00000    0.00000    0.03160    0.00000   -0.16810    0.00000  # c,c,c1,hc
dihedral_coeff	 4    0.00000    0.00000    0.05140    0.00000   -0.14300    0.00000  # c,c1,c,c1
dihedral_coeff	 5    0.00000    0.00000    0.03160    0.00000   -0.16810    0.00000  # c,c1,c,hc
dihedral_coeff	 6    0.00000    0.00000    0.00000    0.00000    0.15000    0.00000  # c1,c,c,cl
dihedral_coeff	 7    0.00000    0.00000    0.03160    0.00000   -0.16810    0.00000  # c1,c,c,hc
dihedral_coeff	 8    0.00000    0.00000    0.00000    0.00000    0.15000    0.00000  # c1,c,c1,cl
dihedral_coeff	 9    0.00000    0.00000    0.03160    0.00000   -0.16810    0.00000  # c1,c,c1,hc
dihedral_coeff	10    0.00000    0.00000    0.00000    0.00000   -0.10000    0.00000  # cl,c,c,hc
dihedral_coeff	11    0.00000    0.00000    0.00000    0.00000   -0.10000    0.00000  # cl,c1,c,hc
dihedral_coeff	12   -0.14320    0.00000    0.06170    0.00000   -0.10830    0.00000  # hc,c,c,hc
dihedral_coeff	13   -0.14320    0.00000    0.06170    0.00000   -0.10830    0.00000  # hc,c,c1,hc

# MiddleBondTorsion Coeffs

dihedral_coeff	 1 mbt  -17.78700   -7.18770    0.00000    1.53000  # c,c,c1,c
dihedral_coeff	 2 mbt    0.00000    0.00000    0.00000    1.53000  # c,c,c1,cl
dihedral_coeff	 3 mbt  -14.87900   -3.65810   -0.31380    1.53000  # c,c,c1,hc
dihedral_coeff	 4 mbt  -17.78700   -7.18770    0.00000    1.53000  # c,c1,c,c1
dihedral_coeff	 5 mbt  -14.87900   -3.65810   -0.31380    1.53000  # c,c1,c,hc
dihedral_coeff	 6 mbt    0.00000    0.00000    0.00000    1.53000  # c1,c,c,cl
dihedral_coeff	 7 mbt  -14.87900   -3.65810   -0.31380    1.53000  # c1,c,c,hc
dihedral_coeff	 8 mbt    0.00000    0.00000    0.00000    1.53000  # c1,c,c1,cl
dihedral_coeff	 9 mbt  -14.87900   -3.65810   -0.31380    1.53000  # c1,c,c1,hc
dihedral_coeff	10 mbt    0.00000    0.00000    0.00000    1.53000  # cl,c,c,hc
dihedral_coeff	11 mbt    0.00000    0.00000    0.00000    1.53000  # cl,c1,c,hc
dihedral_coeff	12 mbt  -14.26100   -0.53220   -0.48640    1.53000  # hc,c,c,hc
dihedral_coeff	13 mbt  -14.26100   -0.53220   -0.48640    1.53000  # hc,c,c1,hc

# EndBondTorsion Coeffs

dihedral_coeff	 1 ebt   -0.07320    0.00000    0.00000   -0.07320    0.00000    0.00000    1.53000    1.53000  # c,c,c1,c
dihedral_coeff	 2 ebt    0.00000    0.00000    0.00000    0.00000    0.00000    0.00000    1.53000    1.79000  # c,c,c1,cl
dihedral_coeff	 3 ebt    0.24860    0.24220   -0.09250    0.08140    0.05910    0.22190    1.53000    1.10100  # c,c,c1,hc
dihedral_coeff	 4 ebt   -0.07320    0.00000    0.00000   -0.07320    0.00000    0.00000    1.53000    1.53000  # c,c1,c,c1
dihedral_coeff	 5 ebt    0.24860    0.24220   -0.09250    0.08140    0.05910    0.22190    1.53000    1.10100  # c,c1,c,hc
dihedral_coeff	 6 ebt    0.00000    0.00000    0.00000    0.00000    0.00000    0.00000    1.53000    1.79000  # c1,c,c,cl
dihedral_coeff	 7 ebt    0.24860    0.24220   -0.09250    0.08140    0.05910    0.22190    1.53000    1.10100  # c1,c,c,hc
dihedral_coeff	 8 ebt    0.00000    0.00000    0.00000    0.00000    0.00000    0.00000    1.53000    1.79000  # c1,c,c1,cl
dihedral_coeff	 9 ebt    0.24860    0.24220   -0.09250    0.08140    0.05910    0.22190    1.53000    1.10100  # c1,c,c1,hc
dihedral_coeff	10 ebt    0.00000    0.00000    0.00000    0.00000    0.00000    0.00000    1.79000    1.10100  # cl,c,c,hc
dihedral_coeff	11 ebt    0.00000    0.00000    0.00000    0.00000    0.00000    0.00000    1.79000    1.10100  # cl,c1,c,hc
dihedral_coeff	12 ebt    0.21300    0.31200    0.07770    0.21300    0.31200    0.07770    1.10100    1.10100  # hc,c,c,hc
dihedral_coeff	13 ebt    0.21300    0.31200    0.07770    0.21300    0.31200    0.07770    1.10100    1.10100  # hc,c,c1,hc

# AngleTorsion Coeffs

dihedral_coeff	 1 at    0.38860   -0.31390    0.13890    0.38860   -0.31390    0.13890  112.67000  112.67000  # c,c,c1,c
dihedral_coeff	 2 at    0.00000    0.00000    0.00000    0.00000    0.00000    0.00000  112.67000  107.00000  # c,c,c1,cl
dihedral_coeff	 3 at   -0.24540    0.00000   -0.11360    0.31130    0.45160   -0.19880  112.67000  110.77000  # c,c,c1,hc
dihedral_coeff	 4 at    0.38860   -0.31390    0.13890    0.38860   -0.31390    0.13890  112.67000  112.67000  # c,c1,c,c1
dihedral_coeff	 5 at   -0.24540    0.00000   -0.11360    0.31130    0.45160   -0.19880  112.67000  110.77000  # c,c1,c,hc
dihedral_coeff	 6 at    0.00000    0.00000    0.00000    0.00000    0.00000    0.00000  112.67000  107.00000  # c1,c,c,cl
dihedral_coeff	 7 at   -0.24540    0.00000   -0.11360    0.31130    0.45160   -0.19880  112.67000  110.77000  # c1,c,c,hc
dihedral_coeff	 8 at    0.00000    0.00000    0.00000    0.00000    0.00000    0.00000  112.67000  107.00000  # c1,c,c1,cl
dihedral_coeff	 9 at   -0.24540    0.00000   -0.11360    0.31130    0.45160   -0.19880  112.67000  110.77000  # c1,c,c1,hc
dihedral_coeff	10 at    0.00000    0.00000    0.00000    0.00000    0.00000    0.00000  107.00000  110.77000  # cl,c,c,hc
dihedral_coeff	11 at    0.00000    0.00000    0.00000    0.00000    0.00000    0.00000  107.00000  110.77000  # cl,c1,c,hc
dihedral_coeff	12 at   -0.80850    0.55690   -0.24660   -0.80850    0.55690   -0.24660  110.77000  110.77000  # hc,c,c,hc
dihedral_coeff	13 at   -0.80850    0.55690   -0.24660   -0.80850    0.55690   -0.24660  110.77000  110.77000  # hc,c,c1,hc

# AngleAngleTorsion Coeffs

dihedral_coeff	 1 aat  -22.04500  112.67000  112.67000  # c,c,c1,c
dihedral_coeff	 2 aat    0.00000  112.67000  107.00000  # c,c,c1,cl
dihedral_coeff	 3 aat  -16.16400  112.67000  110.77000  # c,c,c1,hc
dihedral_coeff	 4 aat  -22.04500  112.67000  112.67000  # c,c1,c,c1
dihedral_coeff	 5 aat  -16.16400  112.67000  110.77000  # c,c1,c,hc
dihedral_coeff	 6 aat    0.00000  112.67000  107.00000  # c1,c,c,cl
dihedral_coeff	 7 aat  -16.16400  112.67000  110.77000  # c1,c,c,hc
dihedral_coeff	 8 aat    0.00000  112.67000  107.00000  # c1,c,c1,cl
dihedral_coeff	 9 aat  -16.16400  112.67000  110.77000  # c1,c,c1,hc
dihedral_coeff	10 aat    0.00000  107.00000  110.77000  # cl,c,c,hc
dihedral_coeff	11 aat    0.00000  107.00000  110.77000  # cl,c1,c,hc
dihedral_coeff	12 aat  -12.56400  110.77000  110.77000  # hc,c,c,hc
dihedral_coeff	13 aat  -12.56400  110.77000  110.77000  # hc,c,c1,hc

# BondBond13 Coeffs

dihedral_coeff	 1 bb13    0.00000    1.53000    1.53000  # c,c,c1,c
dihedral_coeff	 2 bb13    0.00000    1.53000    1.79000  # c,c,c1,cl
dihedral_coeff	 3 bb13    0.00000    1.53000    1.10100  # c,c,c1,hc
dihedral_coeff	 4 bb13    0.00000    1.53000    1.53000  # c,c1,c,c1
dihedral_coeff	 5 bb13    0.00000    1.53000    1.10100  # c,c1,c,hc
dihedral_coeff	 6 bb13    0.00000    1.53000    1.79000  # c1,c,c,cl
dihedral_coeff	 7 bb13    0.00000    1.53000    1.10100  # c1,c,c,hc
dihedral_coeff	 8 bb13    0.00000    1.53000    1.79000  # c1,c,c1,cl
dihedral_coeff	 9 bb13    0.00000    1.53000    1.10100  # c1,c,c1,hc
dihedral_coeff	10 bb13    0.00000    1.79000    1.10100  # cl,c,c,hc
dihedral_coeff	11 bb13    0.00000    1.79000    1.10100  # cl,c1,c,hc
dihedral_coeff	12 bb13    0.00000    1.10100    1.10100  # hc,c,c,hc
dihedral_coeff	13 bb13    0.00000    1.10100    1.10100  # hc,c,c1,hc

# Improper Coeffs

improper_coeff	 1    0.00000    0.00000  # c,c,cl,hc
improper_coeff	 2    0.00000    0.00000  # c,c,hc,c1
improper_coeff	 3    0.00000    0.00000  # c,c,hc,cl
improper_coeff	 4    0.00000    0.00000  # c,c,hc,hc
improper_coeff	 5    0.00000    0.00000  # c,c1,c1,hc
improper_coeff	 6    0.00000    0.00000  # c,c1,hc,hc
improper_coeff	 7    0.00000    0.00000  # c,cl,hc,hc
improper_coeff	 8    0.00000    0.00000  # c,hc,hc,hc
improper_coeff	 9    0.00000    0.00000  # c1,c,c,cl
improper_coeff	10    0.00000    0.00000  # c1,c,c,hc
improper_coeff	11    0.00000    0.00000  # c1,c,cl,hc

# AngleAngle Coeffs

improper_coeff	 1 aa    0.00000    0.00000    0.00000  107.00000  110.77000  107.99680  # c,c,cl,hc
improper_coeff	 2 aa    0.11840   -1.31990   -1.31990  110.77000  112.67000  110.77000  # c,c,hc,c1
improper_coeff	 3 aa    0.00000    0.00000    0.00000  110.77000  107.00000  107.99680  # c,c,hc,cl
improper_coeff	 4 aa    0.27380   -0.48250    0.27380  110.77000  110.77000  107.66000  # c,c,hc,hc
improper_coeff	 5 aa   -1.31990   -1.31990    0.11840  112.67000  110.77000  110.77000  # c,c1,c1,hc
improper_coeff	 6 aa    0.27380   -0.48250    0.27380  110.77000  110.77000  107.66000  # c,c1,hc,hc
improper_coeff	 7 aa    0.00000    0.00000    0.00000  107.99680  107.99680  107.66000  # c,cl,hc,hc
improper_coeff	 8 aa   -0.31570   -0.31570   -0.31570  107.66000  107.66000  107.66000  # c,hc,hc,hc
improper_coeff	 9 aa    0.00000    0.00000    0.00000  112.67000  107.00000  107.00000  # c1,c,c,cl
improper_coeff	10 aa   -1.31990   -1.31990    0.11840  112.67000  110.77000  110.77000  # c1,c,c,hc
improper_coeff	11 aa    0.00000    0.00000    0.00000  107.00000  110.77000  107.99680  # c1,c,cl,hc


# --- Thermo Output ---
thermo_style custom step time temp press enthalpy etotal ke pe ebond eangle edihed eimp evdwl ecoul elong etail vol lx ly lz density pxx pyy pzz
thermo_modify flush yes
thermo 1000

# --- Trajectory ---
dump dump_npt all custom 1000 npt_extend.dump id type mol x y z ix iy iz vx vy vz

# --- Restart Checkpointing ---
# No restart checkpointing

# --- Initial Velocities (optional) ---
# Velocities read from data file

# --- SHAKE Constraints ---
# SHAKE disabled

# --- NPT Thermostat + Barostat (Nose-Hoover) ---
# T_damp = 100.0 fs  (heat bath coupling)
# P_damp = 1000.0 fs  (pressure bath coupling, ~10x T_damp typical)
# Ramp: T=300.0->300.0K  P=1.0->1.0atm
timestep 1.0
fix npt_fix all npt temp 300.0 300.0 100.0 iso 1.0 1.0 1000.0

run 2000000
PPPM Kokkos initialization ...
  using 12-bit tables for long-range coulomb
  G vector (1/distance) = 0.29535253
  grid = 24 24 24
  stencil order = 5
  estimated absolute RMS force accuracy = 0.00037745024
  estimated relative force accuracy = 1.1366802e-06
  using double precision cuFFT
  3d grid and FFT values/proc = 29791 13824
Generated 6 of 6 mixed pair_coeff terms from sixthpower/sixthpower mixing rule
Neighbor list info ...
  update: every = 1 steps, delay = 0 steps, check = yes
  max neighbors/atom: 4000, page size: 100000
  master list distance cutoff = 11.5
  ghost atom cutoff = 11.5
  binsize = 11.5, bins = 4 4 4
  1 neighbor lists, perpetual/occasional/extra = 1 0 0
  (1) pair lj/class2/coul/long/kk, perpetual
      attributes: full, newton off, kokkos_device
      pair build: full/bin/kk/device
      stencil: full/bin/3d
      bin: kk/device
Per MPI rank memory allocation (min/avg/max) = 24.04 | 24.04 | 24.04 Mbytes
   Step          Time           Temp          Press         Enthalpy        TotEng         KinEng         PotEng         E_bond        E_angle        E_dihed        E_impro         E_vdwl         E_coul         E_long         E_tail         Volume           Lx             Ly             Lz          Density          Pxx            Pyy            Pzz      
         0   0              300.32491      134.2242      -352.72768     -443.30159      3239.7705     -3683.0721      1278.5158      1948.9477     -2079.5939      16.011978     -987.36476     -1615.5844     -2244.0046     -273.50434      46269.67       35.90036       35.90036       35.90036       1.346517      -179.3741       1174.6626     -592.61588    
      1000   1000           296.63733     -24.967368     -513.57768     -496.70439      3199.9904     -3696.6948      1267.2579      1927.9148     -2053.0552      15.581257     -1002.3784     -1607.4017     -2244.6134     -273.09228      46339.485      35.918407      35.918407      35.918407      1.3444883     -130.28756     -40.177025      95.562479    
      2000   2000           300.88312      1004.0326      221.16612     -448.63317      3245.7922     -3694.4254      1255.843       1950.1028     -2058.6382      14.9429       -992.22377     -1617.186      -2247.2661     -276.65572      45742.615      35.763526      35.763526      35.763526      1.3620319      3497.6519     -275.37483     -210.17929    
      3000   3000           290.22962     -1042.2563     -1267.541      -563.8853       3130.8669     -3694.7522      1243.2287      1935.5441     -2053.6894      14.962739     -985.30171     -1606.1194     -2243.3773     -273.36997      46292.414      35.906241      35.906241      35.906241      1.3458554     -99.72872       49.829744     -3076.8698    
      4000   4000           301.8383       396.0579      -161.2581      -426.67873      3256.0963     -3682.775       1272.2757      1938.4603     -2052.3811      14.957855     -1005.6145     -1604.6407     -2245.8326     -275.39784      45951.544      35.817893      35.817893      35.817893      1.3558391     -17.921611      812.51627      393.57903    
      5000   5000           300.09424      99.613832     -323.50979     -390.06532      3237.282      -3627.3474      1307.6891      1974.3224     -2047.306       15.659813     -1031.8785     -1604.3423     -2241.4918     -276.23073      45812.99       35.781857      35.781857      35.781857      1.3599396      418.04002      408.54436     -527.74289    
      6000   6000           299.47059     -1038.4884     -1244.6446     -539.20195      3230.5544     -3769.7564      1210.3848      1915.9882     -2094.1426      14.957825     -963.18177     -1608.9429     -2244.8199     -271.69174      46578.36       35.98002       35.98002       35.98002       1.3375932     -1186.8268      52.475411     -1981.1137    
      7000   7000           303.58663      677.41015      75.008274     -382.44774      3274.9564     -3657.4041      1262.1164      1983.7954     -2073.0544      15.616483     -988.17367     -1608.7184     -2248.986      -273.29953      46304.345      35.909326      35.909326      35.909326      1.3455087      565.97955      1186.4277      279.82322    
      8000   8000           297.81727     -19.28567      -512.12651     -499.05587      3212.7192     -3711.775       1253.2609      1943.1033     -2066.6814      15.572317     -1008.2588     -1606.2924     -2242.4791     -272.31682      46471.444      35.952469      35.952469      35.952469      1.3406706      990.78176     -135.74685     -912.89191    
      9000   9000           301.03339     -629.05855     -846.68357     -423.42325      3247.4132     -3670.8364      1256.1449      1957.3393     -2033.5218      15.82595      -1008.5773     -1610.9872     -2247.0603     -274.29635      46136.071      35.865774      35.865774      35.865774      1.3504162     -444.73925     -1292.6311     -149.80534    
     10000   10000          297.15643     -720.33551     -965.27536     -483.08005      3205.5904     -3688.6704      1279.4451      1932.8009     -2035.3543      14.737382     -1032.6559     -1601.7459     -2245.8978     -275.70736      45899.956      35.804484      35.804484      35.804484      1.3573629     -1506.6815     -1004.9516      350.62661    
     11000   11000          298.9695       360.66979     -110.65081     -353.83909      3225.1488     -3578.9879      1278.4508      2000.6324     -2051.087       15.556257     -970.15339     -1606.4358     -2245.9512     -273.71817      46233.524      35.891009      35.891009      35.891009      1.3475697      912.54292     -1429.9299      1599.3963    
     12000   12000          301.33833     -122.19674     -518.73594     -436.67399      3250.7028     -3687.3768      1295.5979      1929.305      -2078.1239      14.873725     -981.56055     -1618.1967     -2249.2723     -274.82379      46047.527      35.842814      35.842814      35.842814      1.3530129      777.80678     -28.341537     -1116.0555    
     13000   13000          305.39044      371.58275     -152.52566     -403.41557      3294.4151     -3697.8307      1266.1956      1949.7418     -2082.9441      15.785574     -996.87471     -1606.7571     -2242.9778     -273.34358      46296.883      35.907396      35.907396      35.907396      1.3457255      1687.0506     -566.12101     -6.1813561    
     14000   14000          298.93852     -749.08831     -981.3411      -476.53967      3224.8146     -3701.3543      1258.8581      1962.9847     -2054.6236      15.427667     -1027.6378     -1610.8853     -2245.478      -273.87283      46207.415      35.884252      35.884252      35.884252      1.3483312     -643.94686     -668.37735     -934.9407     
     15000   15000          309.25434     -300.20119     -513.51547     -311.98986      3336.0972     -3648.087       1298.5838      1975.9683     -2079.0214      16.194581     -1007.1489     -1608.5823     -2244.0811     -274.92782      46030.102      35.838293      35.838293      35.838293      1.3535251      2056.0956     -976.40001     -1980.2992    
     16000   16000          304.1552       273.8191      -198.9913      -382.24651      3281.0899     -3663.3364      1257.7855      1969.5278     -2082.1748      14.744403     -957.33353     -1617.5562     -2248.3295     -275.76803      45889.857      35.801858      35.801858      35.801858      1.3576616      1645.2157      335.69435     -1159.4527    
     17000   17000          304.84472      152.18536     -330.7564      -433.47883      3288.5282     -3722.007       1234.8422      1965.4884     -2084.5652      15.367969     -998.85732     -1609.7888     -2244.4943     -273.42871      46282.469      35.90367       35.90367       35.90367       1.3461446      897.80374      528.9031      -970.15077    
     18000   18000          295.46828     -325.40392     -738.90106     -521.95885      3187.3793     -3709.3382      1307.5126      1937.9592     -2084.4222      15.627596     -1028.3582     -1611.7749     -2245.8822     -276.83133      45713.597      35.755962      35.755962      35.755962      1.3628964      145.4619       12.455184     -1134.1288    
     19000   19000          301.24873      620.63502      14.265199     -406.23627      3249.7362     -3655.9725      1278.3636      1928.0408     -2065.7452      14.354807     -947.78856     -1616.2127     -2246.9852     -272.39886      46457.448      35.948859      35.948859      35.948859      1.3410745      1514.9291      539.92824     -192.9523     
     20000   20000          297.36489      133.78011     -355.2078      -445.87745      3207.8391     -3653.7165      1275.2497      1979.9949     -2069.9984      15.242974     -992.45071     -1614.4579     -2247.2971     -272.31159      46472.335      35.952699      35.952699      35.952699      1.3406449      971.86556     -338.49794     -232.02728    
     21000   21000          305.13976      1548.027       716.52014     -317.52479      3291.7109     -3609.2357      1268.2047      1994.7589     -2046.1966      15.882043     -979.95808     -1613.6156     -2248.3111     -276.29666      45802.059      35.779011      35.779011      35.779011      1.3602641      1597.8377      2022.288       1023.9552    
     22000   22000          301.75123     -1234.4389     -1284.1443     -449.33828      3255.157      -3704.4952      1268.4937      1953.7336     -2073.4721      15.405556     -1015.2124     -1607.5704     -2245.8732     -272.91068      46370.32       35.926372      35.926372      35.926372      1.3435943     -1890.596      -886.35761     -926.3631     
     23000   23000          295.52717     -147.68283     -618.02492     -518.26951      3188.0145     -3706.284       1262.1751      1977.8571     -2079.6954      15.418621     -1024.9474     -1608.0787     -2249.0134     -273.23105      46315.95       35.912325      35.912325      35.912325      1.3451715      487.90188     -1229.2084      298.25801    
     24000   24000          304.46027     -599.24827     -759.10884     -354.2756       3284.3809     -3638.6565      1306.2984      1922.53       -2074.3963      14.75207      -955.53362     -1610.0377     -2242.2694     -273.19148      46322.66       35.914059      35.914059      35.914059      1.3449767      491.78571     -287.27554     -2002.255     
     25000   25000          301.62837     -321.50319     -661.0386      -442.94451      3253.8316     -3696.7761      1288.1437      1887.7892     -2057.567       14.602474     -966.36123     -1613.3291     -2250.0541     -272.06828      46513.896      35.963413      35.963413      35.963413      1.339447       439.09129     -327.31584     -1076.285     
     26000   26000          299.74054     -480.92981     -808.09521     -481.95761      3233.4665     -3715.4241      1271.4976      1915.1997     -2070.6002      15.464602     -1004.0218     -1601.5519     -2241.4121     -272.15564      46498.965      35.959565      35.959565      35.959565      1.3398771     -1307.6591      424.22733     -559.35769    
     27000   27000          303.15585     -360.16899     -676.09515     -431.84809      3270.3094     -3702.1574      1263.8143      1941.1871     -2091.1019      15.52111      -984.92909     -1602.266      -2244.383      -272.15322      46499.378      35.959672      35.959672      35.959672      1.3398652      1433.8897     -1426.6687     -1087.7279    
     28000   28000          300.37346     -208.91172     -634.99888     -493.05123      3240.2942     -3733.3454      1234.7801      1905.6979     -2051.5903      15.30521      -985.24854     -1605.7724     -2246.5174     -271.62586      46589.658      35.982929      35.982929      35.982929      1.3372688      153.21045     -122.67361     -657.27202    
     29000   29000          303.07462     -167.32044     -420.83301     -307.30073      3269.4331     -3576.7338      1279.9122      2007.2793     -2076.9718      14.854118     -950.51908     -1607.2663     -2244.0223     -271.99828      46525.866      35.966498      35.966498      35.966498      1.3391024      1319.1902     -84.183692     -1736.9678    
     30000   30000          300.98454     -957.81694     -1117.6499     -475.42526      3246.8863     -3722.3115      1218.302       1965.752      -2058.614       15.946027     -1009.8531     -1608.2457     -2245.5989     -275.25301      45975.722      35.824174      35.824174      35.824174      1.355126      -1550.04        871.93563     -2195.3464    
     31000   31000          305.14676      512.38561     -20.019569     -371.57496      3291.7864     -3663.3614      1248.0426      1955.8327     -2065.2845      15.760557     -961.24406     -1607.9108     -2248.5578     -268.99219      47045.81       36.099982      36.099982      36.099982      1.3243028      586.88722      1031.342      -81.072351    
     32000   32000          293.95488      1178.5854      262.28987     -532.53049      3171.0535     -3703.584       1278.9578      1899.5795     -2057.7358      15.221883     -973.62407     -1616.0517     -2249.9316     -273.67088      46241.514      35.893076      35.893076      35.893076      1.3473369      1042.7392      2160.9395      332.07745    
     33000   33000          303.05533      848.02581      170.99766     -399.97267      3269.225      -3669.1976      1226.9951      1976.8535     -2048.5086      15.790552     -988.58629     -1607.1588     -2244.5831     -274.11452      46166.673      35.873702      35.873702      35.873702      1.3495211     -54.768056      569.82471      2029.0208    
     34000   34000          294.90077      711.208       -43.24742      -523.21865      3181.2572     -3704.4759      1241.1098      1960.7135     -2062.0105      16.760178     -998.55309     -1612.8233     -2249.6724     -273.4752       46274.601      35.901635      35.901635      35.901635      1.3463735      307.63746      694.68874      1131.2978    
     35000   35000          298.4716      -1201.1476     -1178.2146     -369.9733       3219.7778     -3589.7511      1296.081       1994.9925     -2080.8576      16.399958     -959.55681     -1612.1102     -2244.6999     -274.27855      46139.064      35.866549      35.866549      35.866549      1.3503286     -2124.0975     -1636.3911      157.04594    
     36000   36000          305.8242       540.16202     -110.83935     -473.85661      3299.0944     -3772.951       1231.7438      1904.0492     -2071.5483      15.026449     -993.92222     -1609.9501     -2248.3498     -274.62071      46081.578      35.851647      35.851647      35.851647      1.3520131     -1180.3981      1332.3202      1468.5639    
     37000   37000          296.88438      1642.1251      551.36821     -548.00214      3202.6555     -3750.6577      1238.2509      1899.2896     -2060.0981      15.212195     -987.05832     -1607.753      -2248.501      -275.67587      45905.2        35.805848      35.805848      35.805848      1.3572079     -35.237675      3815.3321      1146.281     
     38000   38000          297.48165      289.75542     -314.30696     -508.3383       3209.0986     -3717.4369      1271.2179      1886.955      -2066.7095      14.198547     -963.11393     -1612.0904     -2247.8946     -275.61078      45916.04       35.808666      35.808666      35.808666      1.3568874     -248.7511       982.08899      135.92837    
     39000   39000          304.5676      -908.93435     -1000.459      -388.26005      3285.5386     -3673.7987      1262.8513      1997.1686     -2056.9012      15.217211     -1041.8307     -1607.3974     -2242.9065     -274.01635      46183.213      35.877985      35.877985      35.877985      1.3490377     -1697.8931     -718.27654     -310.63344    
     40000   40000          305.33089     -264.68989     -564.73897     -386.21173      3293.7727     -3679.9844      1295.3048      1966.3658     -2074.7632      15.957008     -1031.2965     -1603.8404     -2247.712      -273.63358      46247.817      35.894707      35.894707      35.894707      1.3471533     -806.80334      392.97725     -380.24358    
     41000   41000          302.91105      534.47837     -61.093598     -419.89828      3267.6685     -3687.5668      1261.2817      1947.018      -2066.1162      14.681807     -998.05778     -1603.4998     -2242.8746     -274.92141      46031.176      35.838572      35.838572      35.838572      1.3534935      40.493906      895.44283      667.49838    
     42000   42000          292.95043     -740.90105     -1017.6427     -520.20653      3160.2178     -3680.4244      1297.8489      1946.2764     -2071.2966      15.477147     -1020.1437     -1603.0911     -2245.4954     -274.89025      46036.393      35.839925      35.839925      35.839925      1.3533401     -395.77413     -102.16684     -1724.7622    
     43000   43000          302.28157      458.78179     -124.46198     -432.38316      3260.878      -3693.2612      1257.3784      1950.896      -2050.0216      15.257508     -1011.8052     -1611.21       -2243.7563     -274.98128      46021.154      35.83597       35.83597       35.83597       1.3537883      2397.125       16.445883     -1037.2255    
     44000   44000          307.43762     -24.863829     -341.0758      -324.29045      3316.4992     -3640.7897      1235.7666      2000.1064     -2055.9664      15.443766     -984.50332     -1606.3975     -2245.2393     -273.38471      46289.917      35.905596      35.905596      35.905596      1.345928       53.179497      389.161       -516.93199    
     45000   45000          300.53395      463.13497     -71.915924     -383.40908      3242.0255     -3625.4346      1315.7384      1972.5579     -2084.0317      16.220399     -991.79117     -1607.7563     -2246.3721     -274.40725      46117.424      35.860941      35.860941      35.860941      1.3509622      13.957703      512.61022      862.83698    
     46000   46000          307.33269      2098.5662      1084.4504     -331.83436      3315.3673     -3647.2016      1257.2625      1961.3048     -2080.8534      14.935864     -936.79378     -1617.8363     -2245.2212     -273.46933      46275.595      35.901892      35.901892      35.901892      1.3463446      1840.7784      2950.5572      1504.363     
     47000   47000          296.54112     -214.67056     -634.12396     -490.3849       3198.9526     -3689.3375      1243.9823      1962.1641     -2062.458       16.051205     -1001.1289     -1605.0944     -2242.8538     -275.63492      45912.02       35.807621      35.807621      35.807621      1.3570062     -279.72697      1516.5361     -1880.8208    
     48000   48000          295.05008     -779.84018     -1012.2814     -485.20249      3182.868      -3668.0705      1281.0972      1932.5239     -2079.0968      15.770262     -963.62786     -1607.0266     -2247.7106     -273.06529      46344.066      35.919591      35.919591      35.919591      1.3443555      118.90979     -2290.7606     -167.66977    
     49000   49000          305.84729     -89.990772     -512.4739      -451.69506      3299.3434     -3751.0384      1232.2147      1882.6132     -2068.4459      15.779756     -951.83994     -1613.4553     -2247.905      -273.26383      46310.395      35.910889      35.910889      35.910889      1.3453329     -516.71785      451.33113     -204.5856     
     50000   50000          305.56734     -680.1747      -864.62985     -403.78219      3296.3235     -3700.1057      1264.7829      1922.8582     -2055.8358      15.839319     -996.79095     -1607.7889     -2243.1704     -272.3953       46458.055      35.949016      35.949016      35.949016      1.341057      -2456.8942      284.46613      131.90399    
     51000   51000          300.90135     -1254.5506     -1258.7455     -408.61419      3245.9888     -3654.603       1252.1671      1994.2522     -2056.1458      15.461225     -1023.3638     -1596.7322     -2240.2416     -272.35709      46464.572      35.950697      35.950697      35.950697      1.3408689     -2047.2052     -2034.9497      318.50326    
     52000   52000          303.34674      566.50592     -54.034384     -434.15417      3272.3686     -3706.5227      1254.5869      1932.0529     -2051.951       15.779        -1006.2556     -1605.4774     -2245.2575     -275.0556       46008.719      35.832742      35.832742      35.832742      1.3541542      1379.2716      597.08989     -276.84373    
     53000   53000          300.20066     -328.15934     -573.7713      -351.62788      3238.4301     -3590.058       1274.3711      1984.4844     -2092.72        15.633678     -925.47247     -1607.0004     -2239.3543     -272.63891      46416.543      35.938306      35.938306      35.938306      1.3422563     -451.12193     -853.52572      320.16964    
     54000   54000          298.16391      48.448167     -363.29022     -395.90703      3216.4585     -3612.3656      1289.5707      1934.6553     -2022.3626      15.048833     -984.59223     -1605.0357     -2239.6499     -274.13995      46162.391      35.872593      35.872593      35.872593      1.3496462     -178.07338      517.59845     -194.18057    
     55000   55000          301.68728      1339.1278      515.96174     -386.89096      3254.4671     -3641.3581      1263.1271      1957.2174     -2056.1379      16.119679     -968.71586     -1611.6238     -2241.3447     -273.74212      46229.479      35.889962      35.889962      35.889962      1.3476877      67.289491      3290.5802      659.51362    
     56000   56000          294.51201     -750.26201     -953.69801     -447.51981      3177.0635     -3624.5833      1314.2734      1924.1702     -2056.2873      15.033493     -984.65421     -1601.505      -2235.6138     -273.55587      46260.955      35.898106      35.898106      35.898106      1.3467707      738.39728     -857.24169     -2131.9416    
     57000   57000          300.95416     -689.14897     -822.62518     -359.53152      3246.5586     -3606.0901      1304.3266      1944.9245     -2036.1419      14.671837     -982.02541     -1608.5115     -2243.3341     -274.65075      46076.537      35.85034       35.85034       35.85034       1.352161      -1476.3912      962.50589     -1553.5616    
     58000   58000          293.99572     -266.50672     -681.52767     -501.68122      3171.494      -3673.1752      1246.2347      1986.9215     -2050.2708      16.558762     -1023.7455     -1605.7478     -2243.1261     -273.49087      46271.95       35.90095       35.90095       35.90095       1.3464507     -470.49036     -899.27251      570.24271    
     59000   59000          299.73174      1701.6091      696.09249     -449.79639      3233.3716     -3683.168       1250.9609      1962.6662     -2045.1083      15.978435     -1016.0924     -1610.9656     -2240.6072     -274.06516      46174.99       35.875856      35.875856      35.875856      1.349278       742.72753      3327.5447      1034.5551    
     60000   60000          300.71794     -399.52236     -685.15832     -415.38726      3244.0103     -3659.3976      1246.9556      2001.3393     -2056.1691      15.677299     -1030.5979     -1598.0558     -2238.547      -273.32683      46299.721      35.90813       35.90813       35.90813       1.3456431      754.94116     -672.98087     -1280.5274    
     61000   61000          292.56458     -94.842075     -545.77285     -481.23618      3156.0555     -3637.2917      1252.5011      1953.296      -2077.1538      14.311467     -918.69077     -1616.2029     -2245.3527     -271.22583      46658.372      36.00061       36.00061       36.00061       1.3352994      751.77883      1322.0918     -2358.3969    
     62000   62000          303.89557     -196.3767      -551.70002     -419.2047       3278.2891     -3697.4938      1297.9197      1905.8643     -2051.3986      15.265626     -1015.2817     -1605.314      -2244.5492     -273.54321      46263.096      35.898659      35.898659      35.898659      1.3467084      551.97426     -557.33556     -583.76881    
     63000   63000          304.36198      1109.1664      295.97911     -445.87597      3283.3205     -3729.1965      1282.2875      1889.3606     -2069.3016      14.750414     -984.40889     -1613.7715     -2248.113      -275.93968      45861.313      35.794434      35.794434      35.794434      1.3585066     -249.68779      1005.2147      2571.9723    
     64000   64000          299.07098      2193.6118      1114.1128     -369.84535      3226.2436     -3596.089       1280.0143      1996.4023     -2066.3417      15.263008     -958.55341     -1617.2579     -2245.6155     -272.81902      46385.9        35.930395      35.930395      35.930395      1.343143       3651.8783      2310.4425      618.51456    
     65000   65000          300.59038      117.7047      -396.2575      -475.67401      3242.6343     -3718.3083      1255.4516      1964.0511     -2082.7105      15.926081     -1028.5555     -1599.8759     -2242.5951     -273.53915      46263.782      35.898837      35.898837      35.898837      1.3466884      1948.8812     -1184.6062     -411.16092    
     66000   66000          299.56977     -2415.2235     -2072.2065     -419.91264      3231.6244     -3651.537       1308.3482      1948.5217     -2058.5367      15.986722     -1022.7068     -1600.161      -2242.9891     -269.77801      46908.774      36.064897      36.064897      36.064897      1.3281715     -608.63981     -3138.676      -3498.3546    
     67000   67000          291.70607      713.20089     -19.545496     -497.90099      3146.7943     -3644.6953      1264.9916      1956.3941     -2062.6851      15.062535     -968.85414     -1607.1886     -2242.4158     -275.16781      45989.957      35.827871      35.827871      35.827871      1.3547066      1581.9314     -729.12852      1286.7998    
     68000   68000          301.98519      836.71482      146.14778     -415.13031      3257.6808     -3672.8111      1268.2318      1986.8149     -2075.9196      15.533832     -1014.6628     -1610.4735     -2242.3358     -275.1287       45996.495      35.829569      35.829569      35.829569      1.354514       1510.8499     -548.43367      1547.7283    
     69000   69000          306.72132      875.97332      203.78278     -389.30706      3308.7721     -3698.0791      1256.324       1943.0403     -2064.33        16.306402     -1011.9188     -1595.3351     -2242.166      -272.58811      46425.193      35.940538      35.940538      35.940538      1.3420062      634.58565      1614.0523      379.28199    
     70000   70000          298.88999      577.19344     -93.387478     -481.55084      3224.2912     -3705.842       1255.635       1942.8781     -2079.0437      15.084632     -981.72976     -1613.1004     -2245.5659     -274.43744      46112.351      35.859626      35.859626      35.859626      1.3511108      1128.1354      911.35366     -307.90875    
     71000   71000          305.46548     -687.31928     -766.55437     -300.62976      3295.2246     -3595.8544      1291.3778      2045.5133     -2097.1588      16.646375     -995.08624     -1612.0893     -2245.0575     -272.25722      46481.617      35.955092      35.955092      35.955092      1.3403772     -982.36882     -711.49144     -368.09759    
     72000   72000          297.32796     -696.95838     -956.42929     -488.92473      3207.4407     -3696.3654      1291.8577      1932.054      -2045.5766      14.476777     -1038.4598     -1605.3428     -2245.3747     -275.14239      45994.206      35.828974      35.828974      35.828974      1.3545814      334.87091     -3036.1411      610.39501    
     73000   73000          309.26267      152.11944     -242.72116     -344.25178      3336.187      -3680.4388      1235.3784      1993.6336     -2058.542       14.562939     -1017.7948     -1604.5297     -2243.1473     -276.51848      45765.316      35.769441      35.769441      35.769441      1.3613562     -490.15712     -1137.052       2083.5674    
     74000   74000          299.24353      941.95435      195.6271      -437.17021      3228.105      -3665.2752      1284.3167      1930.4061     -2065.574       14.458613     -971.26396     -1614.5746     -2243.044      -274.72726      46063.706      35.847012      35.847012      35.847012      1.3525377      1798.9387      302.88408      724.04023    
     75000   75000          299.04917      909.4312       125.47379     -482.16953      3226.0083     -3708.1778      1240.6286      1973.0419     -2061.1238      15.904193     -1032.2183     -1605.4372     -2238.9733     -276.2216       45814.504      35.782251      35.782251      35.782251      1.3598946     -724.72257      1565.3135      1887.7027    
     76000   76000          302.38478     -186.6442      -561.47547     -436.98454      3261.9914     -3698.976       1308.0037      1917.8792     -2062.0635      15.081137     -1029.6222     -1606.1512     -2242.1031     -276.70265      45734.855      35.761504      35.761504      35.761504      1.3622629      1908.8211     -342.703       -2126.0507    
     77000   77000          297.21962     -554.80909     -857.73174     -486.67479      3206.272      -3692.9467      1306.8497      1947.4917     -2084.1714      15.673699     -1027.0262     -1609.3477     -2242.4165     -275.95579      45858.634      35.793737      35.793737      35.793737      1.358586      -504.82284     -263.54664     -896.05779    
     78000   78000          299.12194      274.41392     -281.82761     -465.1682       3226.7934     -3691.9616      1297.7286      1930.1189     -2066.2542      14.968612     -1018.3271     -1606.3785     -2243.8179     -276.23839      45811.72       35.781527      35.781527      35.781527      1.3599773     -1295.5392      707.49891      1411.2821    
     79000   79000          305.78081     -1163.9299     -1074.1879     -297.32359      3298.6263     -3595.9499      1356.101       1976.9191     -2058.3236      15.310077     -1037.6444     -1605.5339     -2242.7782     -276.51465      45765.951      35.769607      35.769607      35.769607      1.3613373     -1374.4131     -968.58502     -1148.7915    
     80000   80000          296.45474     -501.05061     -823.76978     -488.74145      3198.0208     -3686.7622      1269.3148      1917.3388     -2037.8767      13.886706     -989.25333     -1614.1305     -2246.042      -276.01747      45848.386      35.79107       35.79107       35.79107       1.3588897     -499.33169      418.77785     -1422.598     
     81000   81000          299.8219       624.34111     -73.142203     -490.78456      3234.3442     -3725.1287      1261.1365      1950.868      -2080.9794      15.367143     -1018.9237     -1608.5879     -2244.0094     -275.90141      45867.674      35.796088      35.796088      35.796088      1.3583182      1688.0272      124.45763      60.538529    
     82000   82000          300.8362       1082.5418      219.35807     -505.08187      3245.286      -3750.3679      1250.8678      1944.9416     -2088.8719      15.99378      -1011.9467     -1615.1956     -2246.1568     -275.79019      45886.171      35.8009        35.8009        35.8009        1.3577707      1932.0248      1031.4807      284.11992    
     83000   83000          304.14226     -57.336041     -473.93311     -435.48584      3280.9503     -3716.4361      1290.1396      1919.0004     -2064.8502      15.025617     -1027.3268     -1606.2052     -2242.2195     -275.23184      45979.257      35.825092      35.825092      35.825092      1.3550218     -1245.3479      278.0723       795.26748    
     84000   84000          297.78256      855.32381      107.17754     -467.28248      3212.3447     -3679.6272      1274.3022      1983.6683     -2071.6951      15.670061     -1028.6879     -1608.7549     -2244.1299     -274.79401      46052.516      35.844109      35.844109      35.844109      1.3528663     -602.85504      2184.0683      984.75814    
     85000   85000          302.43179     -72.402717     -465.01344     -416.62823      3262.4985     -3679.1268      1274.4806      1989.2097     -2081.8423      14.741602     -1024.003      -1609.0734     -2242.6401     -276.17143      45822.827      35.784418      35.784418      35.784418      1.3596476      685.53282      3.9805379     -906.72151    
     86000   86000          301.13431      841.08194      132.47193     -430.04956      3248.5019     -3678.5515      1284.4179      1947.5803     -2066.2012      14.572289     -1000.0033     -1613.5201     -2245.3975     -275.95337      45859.036      35.793841      35.793841      35.793841      1.3585741      1299.1336     -44.299495      1268.4117    
     87000   87000          296.72646     -142.39396     -562.49879     -466.77604      3200.952      -3667.728       1297.5157      1919.411      -2060.3598      14.073642     -996.02361     -1601.8712     -2240.4738     -274.54462      46094.35       35.854959      35.854959      35.854959      1.3516385     -1641.3358      1044.0544      170.09953    
     88000   88000          298.76369      13.650538     -402.971       -412.16504      3222.9287     -3635.0938      1309.6389      1943.6507     -2073.6713      14.901782     -996.47074     -1597.9519     -2235.1911     -274.01856      46182.841      35.877889      35.877889      35.877889      1.3490486      939.91893     -921.27692      22.309603    
     89000   89000          302.1301      -837.78567     -1048.9454     -482.62104      3259.244      -3741.865       1255.7571      1933.1538     -2102.2965      15.168578     -993.19759     -1608.8397     -2241.6107     -273.0261       46350.718      35.921309      35.921309      35.921309      1.3441625      327.13636     -806.7958      -2033.6976    
     90000   90000          301.37496     -1188.1626     -1157.0939     -349.77167      3251.0979     -3600.8696      1336.9039      1979.8331     -2067.7805      15.20057      -1022.6798     -1601.5357     -2240.8112     -271.62234      46590.261      35.983084      35.983084      35.983084      1.3372515      794.98352     -1276.8677     -3082.6035    
     91000   91000          294.77799     -1000.1575     -1193.1304     -515.68016      3179.9327     -3695.6129      1237.8084      1953.2094     -2054.6595      13.631026     -991.06693     -1608.1131     -2246.4222     -272.47554      46444.374      35.945487      35.945487      35.945487      1.341452      -768.66949     -1780.0571     -451.74576    
     92000   92000          298.03133      79.506346     -274.71396     -328.07477      3215.0284     -3543.1031      1300.5684      2032.7317     -2050.0796      15.067925     -990.43037     -1606.482      -2244.4792     -274.98936      46019.801      35.835619      35.835619      35.835619      1.3538281      548.0207      -764.44307      454.94141    
     93000   93000          298.89932     -586.562       -864.04561     -471.18733      3224.3918     -3695.5791      1245.32        2014.2361     -2069.789       15.858291     -1045.2541     -1611.1961     -2244.7543     -275.55896      45924.676      35.810911      35.810911      35.810911      1.3566323     -1648.5931     -85.617776     -25.475082    
     94000   94000          306.37163     -1068.8796     -1085.4524     -365.61686      3304.9997     -3670.6166      1252.1188      1975.6324     -2055.276       14.979995     -1002.0858     -1611.2279     -2244.758      -274.0514       46177.308      35.876456      35.876456      35.876456      1.3492103     -3248.1937      23.484276      18.070581    
     95000   95000          294.93126     -1310.4415     -1436.9637     -558.06596      3181.5862     -3739.6522      1239.9012      1910.213      -2055.5385      14.55671      -1010.1107     -1598.9781     -2239.6958     -275.17932      45988.034      35.827372      35.827372      35.827372      1.3547632     -1030.5198     -1172.0842     -1728.7204    
     96000   96000          299.62127      455.92925     -170.65785     -478.98149      3232.1799     -3711.1614      1247.4222      1925.0844     -2072.9072      14.763975     -974.20176     -1605.9221     -2245.401      -272.91484      46369.614      35.92619       35.92619       35.92619       1.3436148     -248.33009      590.87946      1025.2384    
     97000   97000          292.20988      333.06917     -273.87158     -498.46504      3152.2292     -3650.6942      1306.3886      1910.9401     -2034.1404      15.020077     -1003.2047     -1604.6892     -2241.0087     -273.6994       46236.695      35.891829      35.891829      35.891829      1.3474773      579.96979     -1100.2463      1519.484     
     98000   98000          299.64175      628.45571     -11.464283     -431.71275      3232.4008     -3664.1135      1269.6452      1981.6097     -2078.7927      16.353834     -1007.8423     -1603.0611     -2242.0261     -275.99745      45851.713      35.791936      35.791936      35.791936      1.3587911      593.0168      -1364.0078      2656.3581    
     99000   99000          301.6602      -2031.1393     -1771.0493     -400.83611      3254.1749     -3655.011       1343.2012      1931.704      -2063.8461      15.752169     -1026.1807     -1611.7311     -2243.9105     -273.58235      46256.477      35.896947      35.896947      35.896947      1.3469011     -791.55347     -3151.5523     -2150.3122    
    100000   100000         296.2461      -471.5307      -762.18903     -442.99698      3195.7701     -3638.7671      1284.2838      1963.8588     -2059.5531      15.257536     -994.55641     -1606.0209     -2242.0368     -272.64305      46415.838      35.938124      35.938124      35.938124      1.3422767     -1969.8999     -110.05301      665.36079    
    101000   101000         303.41147     -368.49279     -559.88484     -310.83952      3273.0669     -3583.9065      1268.3722      2031.4383     -2056.1484      15.79685      -995.48616     -1605.7835     -2242.0958     -273.07827      46341.863      35.919022      35.919022      35.919022      1.3444193      399.38861     -1615.3578      110.49083    
    102000   102000         297.86481     -337.06372     -670.3412      -441.37025      3213.2319     -3654.6022      1266.4979      1975.2535     -2079.0659      15.067474     -977.19667     -1608.5952     -2246.5633     -271.68655      46579.25       35.980249      35.980249      35.980249      1.3375677      845.44448     -334.24028     -1522.3954    
    103000   103000         299.01494     -1113.4036     -1171.998      -417.37315      3225.6391     -3643.0123      1306.6163      1968.8027     -2072.0217      15.905292     -1016.1646     -1604.3767     -2241.7737     -272.30652      46473.202      35.952922      35.952922      35.952922      1.3406199     -1625.1346     -320.1992      -1394.8772    
    104000   104000         296.59534     -59.430611     -513.64017     -473.42957      3199.5375     -3672.9671      1265.8889      1919.1436     -2068.6995      13.513931     -950.09674     -1612.7008     -2240.0165     -272.77604      46393.209      35.932283      35.932283      35.932283      1.3429314     -462.05933      511.35909     -227.59159    
    105000   105000         301.59094     -1499.0275     -1445.6623     -438.44675      3253.4278     -3691.8746      1323.2754      1921.4424     -2062.2036      14.64549      -1041.1401     -1606.7872     -2241.1069     -274.67788      46071.987      35.84916       35.84916       35.84916       1.3522946     -519.08497     -3760.819      -217.17854    
    106000   106000         294.61611     -865.86326     -1150.3311     -567.47069      3178.1865     -3745.6572      1242.759       1903.7392     -2051.8328      14.924114     -997.22255     -1615.6843     -2242.3399     -274.17086      46157.188      35.871245      35.871245      35.871245      1.3497984     -1194.3042     -1684.3935      281.10796    
    107000   107000         298.37011      143.34157     -336.01028     -432.21655      3218.683      -3650.8995      1275.3967      1978.1196     -2062.6603      14.707562     -1007.0934     -1607.1154     -2242.2542     -274.98266      46020.923      35.83591       35.83591       35.83591       1.3537951      1327.5614      454.6097      -1352.1464    
    108000   108000         302.57338      507.75114     -126.89759     -471.76737      3264.026      -3735.7934      1243.398       1917.4668     -2064.4407      15.140887     -990.50058     -1611.0681     -2245.7898     -271.72668      46572.371      35.978478      35.978478      35.978478      1.3377652      104.88818      998.5842       419.78104    
    109000   109000         302.05657      588.88468      20.567142     -377.36509      3258.4508     -3635.8159      1273.7944      1953.3046     -2067.6205      14.768963     -954.50875     -1612.5599     -2242.9946     -273.12261      46334.339      35.917077      35.917077      35.917077      1.3446377     -155.52435     -303.20064      2225.379     
    110000   110000         302.10253     -38.141827     -351.74156     -325.95791      3258.9467     -3584.9046      1289.4302      2003.6452     -2065.6563      15.748138     -984.70864     -1603.6889     -2239.6743     -273.01938      46351.86       35.921604      35.921604      35.921604      1.3441294     -408.41582     -1411.9849      1705.9752    
    111000   111000         296.61062      1227.7693      339.48755     -484.89736      3199.7023     -3684.5997      1249.5557      1957.4898     -2076.7383      14.9675       -976.29661     -1613.8902     -2239.6876     -274.86742      46040.218      35.840918      35.840918      35.840918      1.3532277      1776.99        1636.017       270.30088    
    112000   112000         297.96713      1531.3467      627.46227     -404.4869       3214.3358     -3618.8227      1280.8951      1954.5431     -2058.1566      15.389847     -952.23421     -1614.3234     -2244.9365     -273.87459      46207.119      35.884175      35.884175      35.884175      1.3483398      2521.769       243.17186      1829.0992    
    113000   113000         301.44205      341.20195     -238.63568     -466.87418      3251.8217     -3718.6959      1287.6069      1935.2382     -2084.8069      15.959254     -1027.7174     -1603.4947     -2241.4812     -275.90472      45867.124      35.795945      35.795945      35.795945      1.3583345      966.57995      774.39656     -717.37066    
    114000   114000         297.96314     -18.847605     -459.56797     -446.83895      3214.2927     -3661.1317      1297.5698      1931.8801     -2063.566       15.042132     -996.81178     -1601.6456     -2243.6003     -273.27353      46308.75       35.910464      35.910464      35.910464      1.3453807      1026.5178     -781.00586     -302.05473    
    115000   115000         296.39386      339.83334     -260.21965     -486.11233      3197.3641     -3683.4764      1270.9177      1970.2888     -2054.6149      15.093772     -1037.7878     -1604.7176     -2242.6562     -277.6517       45578.527      35.720711      35.720711      35.720711      1.3669353     -373.9256       1402.6913     -9.2657201    
    116000   116000         308.21381      610.82478      108.29805     -301.26458      3324.8724     -3626.137       1272.1285      1977.7368     -2051.4545      14.966945     -999.40461     -1600.3817     -2239.7284     -275.25349      45975.641      35.824153      35.824153      35.824153      1.3551284      1433.142       745.71153     -346.37917    
    117000   117000         300.48412      714.843       -34.033439     -509.45302      3241.4879     -3750.9409      1263.7273      1937.6165     -2052.1529      15.880961     -1058.7331     -1610.6026     -2246.6772     -277.50456      45602.695      35.727023      35.727023      35.727023      1.3662109      625.13145     -856.69644      2376.094     
    118000   118000         304.23793      244.05317     -151.70757     -315.4782       3281.9823     -3597.4605      1299.4087      1991.1823     -2079.4235      15.929417     -967.55732     -1612.2147     -2244.7854     -275.03311      46012.481      35.833719      35.833719      35.833719      1.3540434      1726.6644     -726.58921     -267.91565    
    119000   119000         294.33753     -76.003937     -516.73264     -465.59507      3175.1813     -3640.7763      1302.1594      1925.4825     -2079.5536      14.225199     -947.26233     -1613.05       -2242.7775     -274.30423      46134.744      35.86543       35.86543       35.86543       1.350455       1853.7316     -637.24077     -1444.5027    
    120000   120000         302.4781      -345.42054     -680.75993     -448.00209      3262.9981     -3711.0002      1285.8808      1922.3035     -2063.1403      15.459574     -1018.1928     -1606.294      -2247.0171     -273.89264      46204.074      35.883387      35.883387      35.883387      1.3484287      364.724        1441.67       -2842.6556    
    121000   121000         295.33279     -409.6927      -729.63557     -453.30841      3185.9177     -3639.2261      1324.6699      1923.1163     -2069.6444      14.935855     -982.21551     -1608.1545     -2241.9337     -273.6347       46247.629      35.894658      35.894658      35.894658      1.3471588     -1811.7802      1265.2713     -682.56917    
    122000   122000         301.11694     -97.938379     -461.64727     -395.65225      3248.3146     -3643.9668      1315.9894      1951.2008     -2064.1364      16.157221     -1029.8204     -1594.9626     -2238.3948     -273.8913       46204.299      35.883445      35.883445      35.883445      1.3484221      1663.8309     -213.10375     -1744.5422    
    123000   123000         296.33333     -160.04271     -605.71691     -497.48095      3196.7111     -3694.192       1260.3186      1966.4372     -2078.286       15.759244     -1006.5946     -1608.0888     -2243.7376     -272.8983       46372.424      35.926916      35.926916      35.926916      1.3435333     -291.60129      134.49259     -323.01943    
    124000   124000         299.52118      884.31571      187.55944     -406.96837      3231.1001     -3638.0685      1264.38        2021.852      -2073.8504      16.074551     -1015.7044     -1608.312      -2242.5082     -274.51854      46098.729      35.856094      35.856094      35.856094      1.3515101      1075.2247      806.99549      770.72697    
    125000   125000         300.39819      823.87336      184.08284     -376.19309      3240.5609     -3616.754       1269.7848      1997.8084     -2074.7418      16.00054      -971.55134     -1607.1324     -2246.9223     -271.39074      46630.021      35.993317      35.993317      35.993317      1.3361113      900.96637     -80.416144      1651.0699    
    126000   126000         302.42676     -165.55694     -527.15844     -414.46304      3262.4443     -3676.9073      1259.2773      1966.2099     -2072.0373      16.284765     -993.38972     -1605.4117     -2247.8406     -271.13009      46674.849      36.004847      36.004847      36.004847      1.3348281      21.207737      261.78605     -779.66459    
    127000   127000         305.6208       758.20478      169.9398      -340.5877       3296.9001     -3637.4879      1260.0948      1999.229      -2065.0945      16.033927     -992.19419     -1609.1038     -2246.4531     -274.09675      46169.667      35.874477      35.874477      35.874477      1.3494336      1252.1242      665.72741      356.76268    
    128000   128000         298.49773      856.23044      139.19961     -442.86236      3220.0596     -3662.922       1270.8749      1951.2507     -2065.9936      14.622916     -992.7782      -1600.3155     -2240.5832     -271.49258      46612.53       35.988816      35.988816      35.988816      1.3366127      995.52929      486.10355      1087.0585    
    129000   129000         292.77452     -1406.6832     -1470.7156     -519.91682      3158.3203     -3678.2371      1258.6701      1948.8449     -2046.2515      14.946135     -1020.8287     -1595.0577     -2238.5604     -273.05127      46346.445      35.920205      35.920205      35.920205      1.3442864     -1020.4158     -540.31197     -2659.3218    
    130000   130000         303.7868       690.49466      120.08765     -346.67933      3277.1158     -3623.7951      1294.4544      1909.0889     -2046.939       14.689105     -940.83553     -1613.3121     -2240.9409     -273.02143      46351.511      35.921514      35.921514      35.921514      1.3441395      1113.0897      625.14349      333.25077    
    131000   131000         298.18299     -802.52427     -946.80842     -406.00503      3216.6644     -3622.6694      1302.9973      1969.4303     -2059.6747      15.010825     -1004.544      -1605.9448     -2239.9444     -273.87683      46206.741      35.884077      35.884077      35.884077      1.3483508     -885.92506     -655.3123      -866.33544    
    132000   132000         304.66407     -152.23949     -435.54168     -332.81714      3286.5794     -3619.3965      1273.2433      1952.4494     -2053.7636      14.662096     -948.17726     -1614.5726     -2243.2379     -273.52034      46266.963      35.89966       35.89966       35.89966       1.3465958     -236.09126     -341.02453      120.39732    
    133000   133000         294.70993      1645.7808      592.58561     -516.49237      3179.1986     -3695.6909      1240.5084      1933.2511     -2064.634       15.061128     -963.69402     -1613.289      -2242.8945     -273.87125      46207.683      35.884321      35.884321      35.884321      1.3483233      2574.1371      2775.6504     -412.44503    
    134000   134000         298.70005      1852.972       808.60094     -423.72662      3222.2422     -3645.9688      1279.5063      1954.3792     -2060.3629      15.125813     -971.71402     -1617.8447     -2245.0585     -277.51037      45601.74       35.726774      35.726774      35.726774      1.3662395      1776.9307      1988.3696      1793.6156    
    135000   135000         297.94033      413.02175     -211.08797     -488.56395      3214.0467     -3702.6106      1224.252       1955.3892     -2061.5483      15.157657     -980.65169     -1611.626      -2243.5836     -274.71607      46065.582      35.847499      35.847499      35.847499      1.3524826      1067.2541      1.1757219      170.63539    
    136000   136000         299.06842      912.85871      113.65231     -496.70118      3226.216      -3722.9172      1244.3882      1910.8973     -2049.9921      14.264448     -984.33299     -1613.237      -2244.9049     -276.0315       45846.056      35.790464      35.790464      35.790464      1.3589587      1683.7639      974.29616      80.516046    
    137000   137000         298.2458      -235.43714     -605.57817     -448.52841      3217.3419     -3665.8704      1265.6839      1965.3557     -2064.5373      15.391825     -999.94005     -1605.5232     -2242.3012     -276.67773      45738.975      35.762577      35.762577      35.762577      1.3621402      232.18241      24.230438     -962.72427    
    138000   138000         299.13774      1473.0711      495.6206      -494.73261      3226.9638     -3721.6965      1228.28        1932.3272     -2070.3391      15.634318     -974.03772     -1610.3406     -2243.2206     -274.51756      46098.894      35.856137      35.856137      35.856137      1.3515053      215.6495       1918.7716      2284.7923    
    139000   139000         306.72815      436.53052     -84.689722     -377.98434      3308.8458     -3686.8301      1276.7142      1926.1824     -2062.426       15.231957     -996.57033     -1603.2469     -2242.7154     -274.69265      46069.509      35.848517      35.848517      35.848517      1.3523673      988.66006      720.07268     -399.14118    
    140000   140000         297.06097     -1135.9836     -1228.5109     -463.95593      3204.5606     -3668.5165      1305.3616      1944.895      -2062.2871      15.91375      -1017.9586     -1608.0532     -2246.388      -274.22047      46148.837      35.869081      35.869081      35.869081      1.3500426     -853.92154     -225.61198     -2328.4173    
    141000   141000         296.13355     -885.2255      -1008.9697     -408.65281      3194.556      -3603.2088      1291.8689      1983.1877     -2080.2935      14.897745     -961.93667     -1608.6141     -2242.3188     -272.15094      46499.768      35.959772      35.959772      35.959772      1.3398539      155.60619      0.83798685    -2812.1207    
    142000   142000         289.23037     -555.62194     -941.55574     -567.88364      3120.0876     -3687.9712      1248.6455      1994.7654     -2066.3554      16.33661      -1031.208      -1604.9668     -2245.1885     -274.42598      46114.277      35.860125      35.860125      35.860125      1.3510544      575.12106     -1561.9179     -680.069      
    143000   143000         297.89572      1317.139       398.99575     -483.02505      3213.5655     -3696.5905      1248.7189      1973.0737     -2074.4162      15.364635     -1012.4857     -1603.8005     -2243.0453     -275.6064       45916.77       35.808856      35.808856      35.808856      1.3568659      1603.7184      75.093454      2272.6051    
    144000   144000         302.64429      200.4431      -243.30279     -377.57961      3264.7908     -3642.3704      1280.5984      1946.1844     -2044.3696      15.034267     -984.48435     -1613.2222     -2242.1113     -275.50316      45933.976      35.813328      35.813328      35.813328      1.3563576      178.90553      1031.6028     -609.17904    
    145000   145000         304.94532     -1725.8577     -1484.8503     -322.47604      3289.6134     -3612.0894      1347.5469      1911.78       -2050.1929      14.449414     -978.77331     -1613.0942     -2243.8053     -274.02838      46181.187      35.877461      35.877461      35.877461      1.3490969     -1120.9743     -688.88607     -3367.7128    
    146000   146000         301.01174     -111.44451     -534.0331      -459.339        3247.1796     -3706.5186      1255.6188      1981.8453     -2065.8287      15.823671     -1044.6023     -1605.3926     -2243.9829     -275.36511      45957.005      35.819312      35.819312      35.819312      1.3556779     -637.9237       232.42476      71.165404    
    147000   147000         294.4035      -1126.7621     -1261.7424     -498.06313      3175.893      -3673.9561      1305.2831      1945.5294     -2067.3898      16.176006     -1026.3292     -1605.2545     -2241.9711     -272.30633      46473.234      35.952931      35.952931      35.952931      1.3406189      256.87818     -1076.1055     -2561.0589    
    148000   148000         301.37711     -1115.1556     -1216.5129     -468.79541      3251.1211     -3719.9165      1239.1994      1924.6538     -2067.1337      14.698964     -971.34619     -1614.8548     -2245.134      -275.2545       45975.473      35.824109      35.824109      35.824109      1.3551334     -2993.8127     -77.872645     -273.7814     
    149000   149000         302.36141      151.41889     -343.92756     -444.72541      3261.7393     -3706.4647      1288.5866      1906.3852     -2052.9414      13.813331     -1006.0427     -1611.7185     -2244.5472     -277.246        45645.224      35.738126      35.738126      35.738126      1.3649379      747.48694      185.56627     -478.79655    
    150000   150000         296.2249      -1155.8233     -1225.7366     -453.02394      3195.5414     -3648.5654      1309.8148      2002.4717     -2086.0297      16.537257     -1034.4641     -1614.1228     -2242.7725     -276.0641       45840.642      35.789055      35.789055      35.789055      1.3591192      103.14866     -2860.9649     -709.65354    
    151000   151000         295.75774     -584.69098     -946.70296     -557.3023       3190.5019     -3747.8042      1223.6663      1995.522      -2073.5478      16.198814     -1064.3709     -1603.7748     -2241.4978     -277.11895      45666.15       35.743587      35.743587      35.743587      1.3643125     -822.4891      -1119.51        187.92615    
    152000   152000         298.595        1038.4537      214.56956     -478.67653      3221.1089     -3699.7855      1276.0263      1914.5988     -2062.4628      14.80521      -989.31367     -1610.4136     -2243.0257     -276.46251      45774.582      35.771855      35.771855      35.771855      1.3610806      1428.8039      1893.4318     -206.87447    
    153000   153000         298.1411      -585.76617     -886.13453     -494.98181      3216.2125     -3711.1943      1211.8203      1963.4077     -2055.2804      15.770575     -993.01003     -1612.0843     -2241.8182     -276.38499      45787.421      35.775199      35.775199      35.775199      1.360699       786.3856      -2027.2637     -516.42042    
    154000   154000         303.23555     -63.95195      -438.30953     -395.52726      3271.1691     -3666.6964      1262.9819      1978.6625     -2063.4069      14.814448     -1006.6363     -1611.2164     -2241.8956     -275.88402      45870.565      35.796841      35.796841      35.796841      1.3582326     -1068.1315     -681.81495      1558.0906    
    155000   155000         301.17713      300.3488      -276.72316     -476.08536      3248.9638     -3725.0492      1242.7912      1952.6334     -2068.6191      14.84923      -1009.3044     -1610.2236     -2247.1759     -278.04789      45513.583      35.703737      35.703737      35.703737      1.3688858      1175.7815     -932.79249      658.05741    
    156000   156000         306.69299     -92.564125     -395.75305     -334.16892      3308.4664     -3642.6353      1299.812       1955.7444     -2047.1759      15.175855     -1017.9602     -1607.4609     -2240.7706     -277.40255      45619.465      35.731402      35.731402      35.731402      1.3657087     -223.59439     -1187.7958      1133.6978    
    157000   157000         292.31787      494.52923     -229.07795     -559.14306      3153.3941     -3712.5372      1257.4315      1920.6193     -2057.6306      14.985978     -996.2664      -1610.7863     -2240.8906     -276.52148      45764.821      35.769312      35.769312      35.769312      1.361371       1152.6079      1493.7024     -1162.7226    
    158000   158000         309.36047     -999.75222     -1087.4519     -420.82322      3337.242      -3758.0652      1314.1979      1903.7935     -2078.4833      15.054896     -1054.0676     -1612.7605     -2245.8002     -276.78649      45721.002      35.757892      35.757892      35.757892      1.3626757     -2349.2451     -1011.5617      361.55021    
    159000   159000         293.75201      178.81632     -295.43087     -415.08158      3168.8649     -3583.9465      1329.5131      1985.7465     -2063.1731      14.743904     -996.51538     -1609.4357     -2244.8258     -275.82168      45880.931      35.799537      35.799537      35.799537      1.3579257     -189.83888      882.65386     -156.36602    
    160000   160000         300.89681     -73.694589     -498.79872     -449.39623      3245.9398     -3695.3361      1281.6444      1942.8871     -2074.4247      15.470787     -1004.4399     -1610.1109     -2246.3629     -275.31082      45966.067      35.821666      35.821666      35.821666      1.3554107     -497.88512      388.2685      -111.46715    
    161000   161000         302.79515      1991.469       981.56823     -356.39201      3266.4183     -3622.8103      1279.2761      1960.4459     -2069.322       14.819152     -952.05211     -1613.2994     -2242.678      -274.70519      46067.407      35.847972      35.847972      35.847972      1.352429       1754.8682      2322.8771      1896.6617    
    162000   162000         300.37779      568.76072     -6.4405688     -390.14775      3240.3409     -3630.4887      1299.1235      1980.7544     -2055.2946      15.439772     -1018.928      -1607.0033     -2244.5804     -273.56856      46258.808      35.89755       35.89755       35.89755       1.3468332      2403.7491     -938.24081      240.77386    
    163000   163000         300.18185     -64.650957     -497.11713     -453.36978      3238.2271     -3691.5969      1274.3764      1935.0393     -2062.7391      15.757864     -997.89407     -1612.2626     -2243.8747     -272.74687      46398.17       35.933563      35.933563      35.933563      1.3427878     -147.02497     -1012.0869      965.15903    
    164000   164000         302.51896     -152.79608     -494.44276     -390.85249      3263.4389     -3654.2914      1275.4662      1962.0827     -2060.1664      15.103179     -997.66331     -1605.1349     -2243.9788     -272.22609      46486.932      35.956463      35.956463      35.956463      1.3402239     -508.80257     -325.37227      375.78659    
    165000   165000         299.77624      699.2525       1.9482117     -466.78315      3233.8517     -3700.6348      1243.4179      1933.8541     -2050.8037      14.901477     -980.38676     -1614.4248     -2247.1931     -275.32556      45963.606      35.821027      35.821027      35.821027      1.3554832      1650.431       1754.0109     -1306.6844    
    166000   166000         299.42433     -234.86283     -625.54571     -468.68431      3230.0554     -3698.7397      1270.6985      1914.224      -2079.1681      14.165249     -961.65186     -1614.1625     -2242.8449     -276.33425      45795.828      35.777389      35.777389      35.777389      1.3604492     -269.31951     -122.10504     -313.16394    
    167000   167000         303.72963      1460.319       533.67042     -444.74354      3276.499      -3721.2425      1255.0466      1908.5721     -2072.2503      15.136842     -972.22673     -1613.0643     -2242.4567     -275.46194      45940.85       35.815114      35.815114      35.815114      1.3561547      1879.0144      1750.9386      751.00391    
    168000   168000         306.37161     -38.722525     -372.16609     -346.23363      3304.9996     -3651.2332      1294.386       1976.8845     -2090.1201      15.531853     -990.7535      -1613.7123     -2243.4496     -275.58553      45920.248      35.80976       35.80976       35.80976       1.3567631     -1065.2249      1072.4877     -123.43039    
    169000   169000         298.54926      1360.6081      455.62481     -450.76679      3220.6155     -3671.3823      1288.8259      1932.8352     -2061.5713      15.216154     -982.78222     -1617.8478     -2246.0582     -277.04716      45677.984      35.746674      35.746674      35.746674      1.363959       3278.0944      1147.6729     -343.94303    
    170000   170000         297.90759     -51.905996     -489.13198     -454.34544      3213.6935     -3668.039       1282.1917      1974.349      -2078.4529      15.263429     -1013.2934     -1608.8431     -2239.2536     -275.38658      45953.423      35.818381      35.818381      35.818381      1.3557836     -425.0441      -147.79501      417.12113    
    171000   171000         301.35035     -183.08376     -544.09189     -420.47879      3250.8324     -3671.3112      1277.4667      1965.0446     -2072.5157      14.337185     -1001.7423     -1613.7387     -2240.1629     -273.35175      46295.499      35.907039      35.907039      35.907039      1.3457658     -1074.6209      538.84133     -13.471697    
    172000   172000         303.36496      457.01953     -138.66028     -446.45669      3272.5651     -3719.0218      1301.9675      1870.9105     -2053.8529      14.117037     -1003.781      -1608.3819     -2240.001      -274.03607      46179.89       35.877125      35.877125      35.877125      1.3491348      1509.53       -185.8758       47.404366    
[...]
   1955000   1955000        299.29517      346.27584     -318.81953     -550.76928      3228.6621     -3779.4314      1236.6158      1955.8155     -2066.0688      15.805479     -1060.8325     -1609.5758     -2251.191      -275.5274       45929.936      35.812278      35.812278      35.812278      1.3564769     -462.32063      881.73244      619.41572    
   1956000   1956000        298.22835     -339.40361     -655.58415     -428.387        3217.1537     -3645.5407      1295.4025      1971.7778     -2058.539       15.127345     -1014.4304     -1604.0418     -2250.8371     -275.70846      45899.772      35.804437      35.804437      35.804437      1.3573683      211.31256     -1563.8161      334.29268    
   1957000   1957000        301.95686     -287.5969      -723.86311     -532.27481      3257.3752     -3789.65        1298.1991      1901.1619     -2075.1007      15.168832     -1063.1025     -1613.634      -2252.3426     -277.04592      45678.189      35.746728      35.746728      35.746728      1.3639529     -1720.4849      808.09669      49.597463    
   1958000   1958000        309.04752     -900.2424      -914.84003     -306.14956      3333.8661     -3640.0156      1307.556       1970.9653     -2059.1557      15.661017     -1019.235      -1608.5979     -2247.2093     -272.9603       46361.892      35.924195      35.924195      35.924195      1.3438386     -2903.8597     -392.83704      595.96958    
   1959000   1959000        297.00986     -200.95605     -663.09356     -527.93433      3204.0092     -3731.9436      1213.8448      1979.6466     -2058.6245      15.306898     -1021.6176     -1608.5195     -2251.9804     -274.40493      46117.815      35.861042      35.861042      35.861042      1.3509508      470.43614     -601.87559     -471.42871    
   1960000   1960000        299.6608       489.85184     -119.35712     -447.71907      3232.6063     -3680.3254      1238.8659      2005.3868     -2066.6216      15.578861     -1003.9896     -1617.8082     -2251.7375     -275.32676      45963.406      35.820975      35.820975      35.820975      1.3554891      283.32209      632.17691      554.05652    
   1961000   1961000        300.79195      1415.5803      487.9751      -462.0802       3244.8087     -3706.8889      1277.7366      1943.7341     -2059.3124      15.208039     -1014.2673     -1617.8971     -2252.0908     -274.99332      46019.139      35.835447      35.835447      35.835447      1.3538475      1366.4831      808.05483      2072.2029    
   1962000   1962000        292.18732     -244.3978      -719.65047     -555.76729      3151.9858     -3707.753       1273.5467      1929.2179     -2043.5671      14.175916     -1019.7738     -1610.0408     -2251.3119     -275.23231      45979.18       35.825072      35.825072      35.825072      1.3550241      162.48677     -1135.898       240.21786    
   1963000   1963000        309.73129      1028.3865      338.30235     -344.39946      3341.2423     -3685.6417      1287.1278      1965.0412     -2064.3629      15.921821     -1024.9546     -1613.5585     -2250.8566     -278.0109       45519.639      35.705321      35.705321      35.705321      1.3687037      1344.2002      764.67714      976.28207    
   1964000   1964000        301.45765     -79.698204     -538.11583     -484.98941      3251.9899     -3736.9793      1284.4606      1940.7133     -2078.6466      16.265445     -1045.5159     -1604.5395     -2249.7167     -276.86913      45707.355      35.754334      35.754334      35.754334      1.3630826     -975.16033      413.36567      322.70005    
   1965000   1965000        299.76875     -658.61322     -884.83482     -436.97728      3233.7709     -3670.7482      1276.0862      1972.5632     -2065.1843      15.817073     -1010.7573     -1608.374      -2250.899      -271.41077      46626.579      35.992431      35.992431      35.992431      1.3362099     -220.41209     -941.04816     -814.37941    
   1966000   1966000        299.15728      541.21372     -129.8701      -494.02316      3227.1746     -3721.1978      1267.0453      1950.3147     -2082.3312      15.671242     -1016.1873     -1606.9987     -2248.7119     -274.29718      46135.93       35.865737      35.865737      35.865737      1.3504203     -122.12257      1480.1972      265.56653    
   1967000   1967000        307.93853      1144.702       407.97874     -354.47153      3321.9027     -3676.3743      1298.1402      1972.4658     -2078.2083      15.336558     -1020.4746     -1609.6875     -2253.9465     -277.08781      45671.283      35.744926      35.744926      35.744926      1.3641591      3122.1688     -154.02059      465.95764    
   1968000   1968000        298.33127     -26.635181     -541.03143     -523.18653      3218.2639     -3741.4505      1247.9037      1933.7169     -2061.3107      15.965322     -1005.1221     -1621.3016     -2251.3019     -275.47244      45939.1        35.81466       35.81466       35.81466       1.3562063      44.354327      1128.3026     -1252.5624    
   1969000   1969000        300.30581     -575.92817     -855.3507      -472.47024      3239.5645     -3712.0347      1254.09        2011.8304     -2086.715       14.774828     -1029.1935     -1623.19       -2253.6313     -277.61417      45584.689      35.722321      35.722321      35.722321      1.3667505      377.39843     -175.74174     -1929.4412    
   1970000   1970000        304.48637     -31.531083     -491.9264      -470.92973      3284.6624     -3755.5922      1271.3203      1924.3472     -2057.8914      14.885008     -1050.1446     -1608.8896     -2249.2191     -277.15644      45659.974      35.741976      35.741976      35.741976      1.364497      -460.56935      124.2227       241.7534     
   1971000   1971000        304.86092      860.30577      215.84942     -358.75449      3288.7029     -3647.4574      1285.3916      2003.6987     -2066.5107      15.204461     -1020.0191     -1612.5816     -2252.6408     -276.32538      45797.298      35.777771      35.777771      35.777771      1.3604056      1089.0931     -454.69858      1946.5228    
   1972000   1972000        301.85643     -407.27916     -766.71699     -494.70166      3256.2918     -3750.9935      1246.4719      1956.9072     -2047.1029      15.558798     -1054.2779     -1614.4234     -2254.1271     -276.33464      45795.763      35.777372      35.777372      35.777372      1.3604511      202.28468     -375.80784     -1048.3143    
   1973000   1973000        303.3583       1330.3801      458.49915     -438.55026      3272.4933     -3711.0436      1224.3252      1994.3986     -2086.5506      16.36222      -994.38059     -1611.7322     -2253.4663     -273.7133       46234.347      35.891222      35.891222      35.891222      1.3475457      2106.8721      1615.8478      268.42042    
   1974000   1974000        305.8555       229.05329     -266.00584     -417.93997      3299.432      -3717.372       1278.0292      1969.5606     -2068.1893      15.453574     -1058.699      -1608.3607     -2245.1665     -278.23881      45482.352      35.695569      35.695569      35.695569      1.3698258     -256.55214      1055.248      -111.53603    
   1975000   1975000        298.3233       757.35002     -23.027727     -528.12065      3218.178      -3746.2986      1247.9523      1934.3562     -2051.3849      14.547488     -1014.2001     -1621.3843     -2256.1853     -276.73359      45729.742      35.760171      35.760171      35.760171      1.3624152      89.743317      841.28217      1341.0246    
   1976000   1976000        298.17262      172.97465     -371.15088     -487.05555      3216.5525     -3703.6081      1246.297       1975.4383     -2067.6533      14.811708     -1010.964      -1612.4713     -2249.0666     -275.43431      45945.458      35.816312      35.816312      35.816312      1.3560186      1011.4535      97.214217     -589.74378    
   1977000   1977000        307.44915      49.640181     -349.05937     -381.70146      3316.6236     -3698.3251      1244.4266      1986.7992     -2063.4441      15.629129     -1017.141      -1612.812      -2251.783      -280.66736      45088.805      35.592316      35.592316      35.592316      1.381782      -1611.4041      709.69864      1050.626     
   1978000   1978000        299.91318     -628.26414     -942.42922     -522.18196      3235.3289     -3757.5109      1305.2182      1894.2816     -2069.3007      14.40765      -1040.4405     -1608.1066     -2253.5705     -275.91411      45865.563      35.795539      35.795539      35.795539      1.3583808     -281.23589     -385.50659     -1218.05      
   1979000   1979000        303.93938     -980.88409     -1100.3235     -435.9971       3278.7617     -3714.7588      1291.2109      1887.1882     -2057.2483      13.695136     -980.9238      -1615.5861     -2253.0948     -272.50389      46439.542      35.94424       35.94424       35.94424       1.3415916     -914.4581      -1446.2396     -581.95454    
   1980000   1980000        299.50187      1361.6226      510.8627      -401.31738      3230.8919     -3632.2093      1305.0345      1980.2633     -2057.6687      14.668522     -1001.8267     -1620.1059     -2252.5743     -275.49434      45935.447      35.81371       35.81371       35.81371       1.3563142      398.76277      3224.8034      461.30162    
   1981000   1981000        296.60669     -803.42613     -993.03242     -450.3582       3199.6599     -3650.0181      1306.8129      1955.5632     -2079.2942      15.469995     -989.2697      -1612.6065     -2246.6938     -273.23937      46314.54       35.911961      35.911961      35.911961      1.3452125     -1993.9274      183.34129     -599.69223    
   1982000   1982000        300.5262      -132.63265     -520.60026     -431.85907      3241.9419     -3673.8009      1271.4803      1995.1352     -2056.2242      15.854161     -1049.7446     -1604.4086     -2245.8932     -275.84287      45877.407      35.79862       35.79862       35.79862       1.3580301     -912.10392      910.04375     -395.83779    
   1983000   1983000        304.51448      86.627475     -404.75545     -462.49123      3284.9656     -3747.4568      1267.6226      1931.2004     -2061.8372      14.821935     -1030.6537     -1614.4427     -2254.1682     -276.91544      45699.712      35.752341      35.752341      35.752341      1.3633105     -593.74836     -103.64737      957.27816    
   1984000   1984000        294.97185     -182.86219     -664.10063     -541.36291      3182.024      -3723.3869      1248.8805      1953.2859     -2069.0089      14.819595     -1004.4977     -1616.3847     -2250.4816     -274.96816      46023.35       35.83654       35.83654       35.83654       1.3537237     -571.30119      812.76142     -790.0468     
   1985000   1985000        304.33965      2085.1867      962.684       -430.29813      3283.0797     -3713.3778      1217.4005      1965.2888     -2056.1404      16.07228      -994.52879     -1612.1461     -2249.3241     -276.2714       45806.247      35.780102      35.780102      35.780102      1.3601398      2338.2479      2508           1409.3122    
   1986000   1986000        294.68446     -10.334523     -564.52575     -557.62912      3178.9238     -3736.5529      1248.6906      1935.9886     -2067.5902      14.606532     -1003.0644     -1615.7334     -2249.4507     -276.56009      45758.431      35.767647      35.767647      35.767647      1.3615611     -184.70805     -652.08973      805.7942     
   1987000   1987000        288.69351     -601.55501     -929.75271     -526.21302      3114.2961     -3640.5092      1331.5797      1952.5946     -2074.5587      15.572477     -996.85326     -1615.3289     -2253.5151     -275.12219      45997.583      35.829851      35.829851      35.829851      1.354482      -734.23534     -818.20224     -252.22747    
   1988000   1988000        291.75998      505.35208     -104.87003     -444.42355      3147.3758     -3591.7993      1303.6074      2017.3701     -2057.7158      15.647811     -1002.7499     -1615.2785     -2252.6805     -274.67703      46072.13       35.849197      35.849197      35.849197      1.3522904     -1505.6062      887.94882      2133.7137    
   1989000   1989000        298.19253      1481.272       494.82815     -497.42856      3216.7673     -3714.1959      1246.6611      1974.3516     -2070.8767      15.542562     -1010.3874     -1619.2997     -2250.1873     -275.5163       45931.785      35.812759      35.812759      35.812759      1.3564223      1699.7893      2063.8309      680.19589    
   1990000   1990000        296.7716       271.6438      -321.71745     -504.43913      3201.4389     -3705.878       1252.0125      2001.189      -2087.9965      16.406705     -1022.3372     -1611.8727     -2253.28       -274.37607      46122.665      35.862299      35.862299      35.862299      1.3508087      300.4846       508.94427      5.5025279    
   1991000   1991000        293.959       -1511.6105     -1472.4903     -463.34731      3171.0979     -3634.4452      1323.5458      1961.1171     -2060.6002      15.758201     -1011.9952     -1608.7744     -2253.4964     -276.45453      45775.903      35.772199      35.772199      35.772199      1.3610414     -1142.109      -690.66724     -2702.0553    
   1992000   1992000        298.29418      290.04226     -368.76686     -562.88521      3217.8639     -3780.7491      1236.176       1933.173      -2061.6673      15.187073     -1022.5205     -1626.3666     -2254.7307     -275.75996      45891.201      35.802208      35.802208      35.802208      1.3576219      175.77132      376.6951       317.66035    
   1993000   1993000        299.02178     -1805.818      -1756.5701     -550.2734       3225.7129     -3775.9863      1252.5522      1939.8847     -2066.9482      15.702725     -1066.3157     -1604.2636     -2246.5985     -276.28438      45804.094      35.779541      35.779541      35.779541      1.3602037     -1080.9253     -1461.9395     -2874.5891    
   1994000   1994000        302.3611       1043.9559      243.53699     -459.46416      3261.736      -3721.2001      1225.3817      1963.5284     -2061.9494      14.573247     -1000.1364     -1612.0769     -2250.5207     -274.07071      46174.055      35.875614      35.875614      35.875614      1.3493053      1865.9172     -321.9904       1587.9408    
   1995000   1995000        302.94944     -697.0642      -887.45639     -421.42022      3268.0827     -3689.5029      1278.6195      1984.7422     -2070.255       16.644698     -1035.4712     -1611.5569     -2252.2262     -276.05122      45842.781      35.789612      35.789612      35.789612      1.3590558     -401.29956     -150.06771     -1539.8253    
   1996000   1996000        300.96328      16.87483      -492.28324     -503.60814      3246.6569     -3750.2651      1223.8323      1918.3477     -2064.68        15.017616     -980.14614     -1610.4299     -2252.2067     -275.00548      46017.104      35.834919      35.834919      35.834919      1.3539074     -794.0114       1037.3637     -192.72784    
   1997000   1997000        302.2315       513.96541     -106.33481     -451.69833      3260.3379     -3712.0362      1241.9677      1940.5484     -2039.9089      14.876012     -1012.0333     -1604.5213     -2252.9649     -274.65907      46075.143      35.849978      35.849978      35.849978      1.3522019      1360.0809      1194.9444     -1013.129     
   1998000   1998000        295.99778      955.74557      214.89557     -429.31852      3193.0914     -3622.4099      1296.053       1986.204      -2059.6662      16.047829     -995.16288     -1613.4167     -2252.4689     -273.80955      46218.094      35.887016      35.887016      35.887016      1.3480196      1244.9703      1796.6114     -174.34503    
   1999000   1999000        293.16874     -1412.8127     -1515.7599     -567.78951      3162.5729     -3730.3624      1258.8831      1951.9885     -2069.6425      15.362062     -1026.3595     -1612.2729     -2248.3213     -275.05932      46008.097      35.832581      35.832581      35.832581      1.3541724     -2731.1601     -1840.6035      333.32549    
   2000000   2000000        301.98972      475.73901     -57.373004     -375.65219      3257.7297     -3633.3819      1275.5934      1980.4108     -2051.9186      15.628194     -987.16908     -1614.7164     -2251.2103     -275.86528      45873.68       35.797651      35.797651      35.797651      1.3581404      646.70768      1973.7376     -1193.2283    
Loop time of 3558.08 on 1 procs for 2000000 steps with 3620 atoms

Performance: 48.565 ns/day, 0.494 hours/ns, 562.100 timesteps/s, 2.035 Matom-step/s
100.0% CPU use with 1 MPI tasks x 1 OpenMP threads

MPI task timing breakdown:
Section |  min time  |  avg time  |  max time  |%varavg| %total
---------------------------------------------------------------
Pair    | 258.51     | 258.51     | 258.51     |   0.0 |  7.27
Bond    | 448.55     | 448.55     | 448.55     |   0.0 | 12.61
Kspace  | 1907.2     | 1907.2     | 1907.2     |   0.0 | 53.60
Neigh   | 164.39     | 164.39     | 164.39     |   0.0 |  4.62
Comm    | 45.271     | 45.271     | 45.271     |   0.0 |  1.27
Output  | 11.595     | 11.595     | 11.595     |   0.0 |  0.33
Modify  | 642.59     | 642.59     | 642.59     |   0.0 | 18.06
Other   |            | 79.93      |            |       |  2.25

Nlocal:           3620 ave        3620 max        3620 min
Histogram: 1 0 0 0 0 0 0 0 0 0
Nghost:          12329 ave       12329 max       12329 min
Histogram: 1 0 0 0 0 0 0 0 0 0
Neighs:              0 ave           0 max           0 min
Histogram: 1 0 0 0 0 0 0 0 0 0
FullNghs:  1.81071e+06 ave 1.81071e+06 max 1.81071e+06 min
Histogram: 1 0 0 0 0 0 0 0 0 0

Total # of neighbors = 1810710
Ave neighs/atom = 500.19613
Ave special neighs/atom = 5.9723757
Neighbor list builds = 47014
Dangerous builds = 0

# --- Cleanup ---
unfix npt_fix

undump dump_npt

# --- Write Output ---
write_dump all custom npt_extend_last.dump id type mol x y z xu yu zu vx vy vz modify sort id
write_data /home/alexzhao/PolyJarvis/data/PVC4/lammps/equil/npt_extend/npt_extend_out.data
System init for write_data ...
PPPM Kokkos initialization ...
  using 12-bit tables for long-range coulomb
  G vector (1/distance) = 0.29557389
  grid = 24 24 24
  stencil order = 5
  estimated absolute RMS force accuracy = 0.00037432903
  estimated relative force accuracy = 1.1272808e-06
  using double precision cuFFT
  3d grid and FFT values/proc = 29791 13824
Generated 6 of 6 mixed pair_coeff terms from sixthpower/sixthpower mixing rule

print "STAGE COMPLETE: NPT T=300.0->300.0K P=1.0->1.0atm steps=2000000"
STAGE COMPLETE: NPT T=300.0->300.0K P=1.0->1.0atm steps=2000000
quit
 |       |  2.25

Nlocal:           3620 ave        3620 max        3620 min
Histogram: 1 0 0 0 0 0 0 0 0 0
Nghost:          12329 ave       12329 max       12329 min
Histogram: 1 0 0 0 0 0 0 0 0 0
Neighs:              0 ave           0 max           0 min
Histogram: 1 0 0 0 0 0 0 0 0 0
FullNghs:  1.81071e+06 ave 1.81071e+06 max 1.81071e+06 min
Histogram: 1 0 0 0 0 0 0 0 0 0

Total # of neighbors = 1810710
Ave neighs/atom = 500.19613
Ave special neighs/atom = 5.9723757
Neighbor list builds = 47014
Dangerous builds = 0
System init for write_data ...
PPPM Kokkos initialization ...
  using 12-bit tables for long-range coulomb
  G vector (1/distance) = 0.29557389
  grid = 24 24 24
  stencil order = 5
  estimated absolute RMS force accuracy = 0.00037432903
  estimated relative force accuracy = 1.1272808e-06
  using double precision cuFFT
  3d grid and FFT values/proc = 29791 13824
Generated 6 of 6 mixed pair_coeff terms from sixthpower/sixthpower mixing rule
STAGE COMPLETE: NPT T=300.0->300.0K P=1.0->1.0atm steps=2000000
