units real
atom_style full
boundary p p p

# --- Force Field Styles ---
pair_style lj/class2/coul/long 9.5 9.5
kspace_style pppm 1e-6
dielectric 1.000000
bond_style class2
angle_style class2
dihedral_style class2
improper_style class2
special_bonds lj/coul 0 0 1
pair_modify mix sixthpower tail yes
neighbor 2.0 bin
neigh_modify delay 0 every 1 check yes
neigh_modify one 4000
# KOKKOS: package loaded via -pk kokkos on the command line

read_data /home/alexzhao/PolyJarvis/data/PEG3/lammps/equil/npt_production_ext/npt_ext_out.data
Reading data file ...
  orthogonal box = (4.1698476 4.1698476 4.1698476) to (45.151285 45.151285 45.151285)
  1 by 1 by 1 MPI processor grid
  reading atoms ...
  7020 atoms
  reading velocities ...
  7020 velocities
  scanning bonds ...
  4 = max bonds/atom
  scanning angles ...
  10 = max angles/atom
  scanning dihedrals ...
  16 = max dihedrals/atom
  scanning impropers ...
  7 = max impropers/atom
  orthogonal box = (4.1698476 4.1698476 4.1698476) to (45.151285 45.151285 45.151285)
  1 by 1 by 1 MPI processor grid
  reading bonds ...
  7010 bonds
  reading angles ...
  13000 angles
  reading dihedrals ...
  14970 dihedrals
  reading impropers ...
  8000 impropers
Finding 1-2 1-3 1-4 neighbors ...
  special bond factors lj:    0        0        1       
  special bond factors coul:  0        0        1       
     4 = max # of 1-2 neighbors
     6 = max # of 1-3 neighbors
     8 = max # of special neighbors
  special bonds CPU = 0.003 seconds
  read_data CPU = 1.092 seconds
include /home/alexzhao/PolyJarvis/data/PEG3/lammps/equil/emc_build.params
# LAMMPS parameters created by EMC v9.4.4, build Jul 31 2025 20:33:44

# Variables

variable	seed		index	830011
variable	ntotal		index	7020
variable	fshape		index	1
variable	output		index	emc_build
variable	field		index	pcff/pcff
variable	location1	index	~/emc/field/
variable	nav		index	0.6022141179
variable	temperature	index	300
variable	radius		index	5
variable	nrelax		index	100
variable	weight_nonbond	index	0.0001
variable	weight_bond	index	0.0001
variable	weight_focus	index	1
variable	cutoff		index	9.5
variable	charge_cutoff	index	9.5
variable	kappa		index	4
variable	density1	index	0.61
variable	lprevious	index	0
variable	lphase		index	49.3211329242
variable	f_poly		index	10
variable	chem_repeat	index	*CCO*
variable	chem_cap	index	*[H]
variable	lg_repeat	index	7
variable	lg_cap		index	1
variable	norm_poly	index	100
variable	l_poly		index	702
variable	mg_repeat	index	16.04303
variable	mg_cap		index	0
variable	m_poly		index	1604.303
variable	n_poly		index	10
variable	mtotal		index	44073.7394
variable	nphase1		index	7020
variable	mphase1		index	44073.7394
variable	vphase1		index	119977.313144
variable	lbox		index	49.3211329242
variable	lphase1		index	49.3211329242
variable	lxx		index	49.3211329242
variable	lyy		index	49.3211329242
variable	lzz		index	49.3211329242
variable	lzy		index	0
variable	lzx		index	0
variable	lyx		index	0
variable	vtotal		index	119977.313144
variable	nl_poly		index	10

# Types

variable	type_c		index	1
variable	type_hc		index	2
variable	type_ho		index	3
variable	type_oc		index	4
variable	type_oh		index	5

variable	type_bond_c_c	index	1
variable	type_bond_c_hc	index	2
variable	type_bond_c_oc	index	3
variable	type_bond_c_oh	index	4
variable	type_bond_ho_oh	index	5

variable	type_angle_c_c_hc index	1
variable	type_angle_c_c_oc index	2
variable	type_angle_c_c_oh index	3
variable	type_angle_c_oc_c index	4
variable	type_angle_c_oh_ho index	5
variable	type_angle_hc_c_hc index	6
variable	type_angle_hc_c_oc index	7
variable	type_angle_hc_c_oh index	8

# Clusters

variable	n0_poly		index	1
variable	n1_poly		index	10
variable	nl_poly		index	10

# Flags

variable	flag_charged	index	1

# Masses

mass		1    12.01115  # c
mass		2     1.00797  # hc
mass		3     1.00797  # ho
mass		4    15.99940  # oc
mass		5    15.99940  # oh

# Potentials

pair_modify	mix sixthpower tail yes
special_bonds	lj/coul 0 0 1

# Pair Coeffs

pair_coeff	 1  1    0.05400    4.01000  # c,c
pair_coeff	 2  2    0.02000    2.99500  # hc,hc
pair_coeff	 3  3    0.01300    1.09800  # ho,ho
pair_coeff	 4  4    0.24000    3.53500  # oc,oc
pair_coeff	 5  5    0.24000    3.53500  # oh,oh

# Bond Coeffs

bond_coeff	1    1.53000  299.67000 -501.77000  679.81000  # c,c
bond_coeff	2    1.10100  345.00000 -691.89000  844.60000  # c,hc
bond_coeff	3    1.42000  400.39540 -835.19510 1313.01420  # c,oc
bond_coeff	4    1.42000  400.39540 -835.19510 1313.01420  # c,oh
bond_coeff	5    0.96500  532.50620 -1282.90500 2004.76580  # ho,oh

# Angle Coeffs

angle_coeff	1  110.77000   41.45300  -10.60400    5.12900  # c,c,hc
angle_coeff	2  111.27000   54.53810   -8.36420  -13.08380  # c,c,oc
angle_coeff	3  111.27000   54.53810   -8.36420  -13.08380  # c,c,oh
angle_coeff	4  104.50000   35.74540  -10.00670   -6.27290  # c,oc,c
angle_coeff	5  105.80000   52.70610  -12.10900   -9.86810  # c,oh,ho
angle_coeff	6  107.66000   39.64100  -12.92100   -2.43180  # hc,c,hc
angle_coeff	7  108.72800   58.54460  -10.80880  -12.40060  # hc,c,oc
angle_coeff	8  108.72800   58.54460  -10.80880  -12.40060  # hc,c,oh

# BondBond Coeffs

angle_coeff	1 bb    3.38720    1.53000    1.10100  # c,c,hc
angle_coeff	2 bb   11.43180    1.53000    1.42000  # c,c,oc
angle_coeff	3 bb   11.43180    1.53000    1.42000  # c,c,oh
angle_coeff	4 bb   -7.11310    1.42000    1.42000  # c,oc,c
angle_coeff	5 bb   -9.68790    1.42000    0.96500  # c,oh,ho
angle_coeff	6 bb    5.33160    1.10100    1.10100  # hc,c,hc
angle_coeff	7 bb   23.19790    1.10100    1.42000  # hc,c,oc
angle_coeff	8 bb   23.19790    1.10100    1.42000  # hc,c,oh

# BondAngle Coeffs

angle_coeff	1 ba   20.75400   11.42100    1.53000    1.10100  # c,c,hc
angle_coeff	2 ba    2.68680   20.40330    1.53000    1.42000  # c,c,oc
angle_coeff	3 ba    2.68680   20.40330    1.53000    1.42000  # c,c,oh
angle_coeff	4 ba   -2.81120   -2.81120    1.42000    1.42000  # c,oc,c
angle_coeff	5 ba   28.58000   18.92770    1.42000    0.96500  # c,oh,ho
angle_coeff	6 ba   18.10300   18.10300    1.10100    1.10100  # hc,c,hc
angle_coeff	7 ba    4.61890   55.32700    1.10100    1.42000  # hc,c,oc
angle_coeff	8 ba    4.61890   55.32700    1.10100    1.42000  # hc,c,oh

# Dihedral Coeffs

dihedral_coeff	1   -0.52030    0.00000   -0.30280    0.00000   -0.34500    0.00000  # c,c,oc,c
dihedral_coeff	2   -0.67320    0.00000   -0.47780    0.00000   -0.16700    0.00000  # c,c,oh,ho
dihedral_coeff	3    0.53020    0.00000    0.00000    0.00000   -0.39660    0.00000  # c,oc,c,hc
dihedral_coeff	4   -0.14320    0.00000    0.06170    0.00000   -0.10830    0.00000  # hc,c,c,hc
dihedral_coeff	5   -0.14350    0.00000    0.25300    0.00000   -0.09050    0.00000  # hc,c,c,oc
dihedral_coeff	6   -0.14350    0.00000    0.25300    0.00000   -0.09050    0.00000  # hc,c,c,oh
dihedral_coeff	7    0.18630    0.00000   -0.43380    0.00000   -0.21210    0.00000  # hc,c,oh,ho
dihedral_coeff	8   -0.18200    0.00000   -0.10840    0.00000   -0.70470    0.00000  # oc,c,c,oc
dihedral_coeff	9   -0.18200    0.00000   -0.10840    0.00000   -0.70470    0.00000  # oc,c,c,oh

# MiddleBondTorsion Coeffs

dihedral_coeff	1 mbt   -5.92880   -2.70070   -0.31750    1.42000  # c,c,oc,c
dihedral_coeff	2 mbt    1.24720    0.00000    0.74850    1.42000  # c,c,oh,ho
dihedral_coeff	3 mbt   -6.80070   -4.65460   -1.41010    1.42000  # c,oc,c,hc
dihedral_coeff	4 mbt  -14.26100   -0.53220   -0.48640    1.53000  # hc,c,c,hc
dihedral_coeff	5 mbt  -16.79750   -1.22960   -0.27500    1.53000  # hc,c,c,oc
dihedral_coeff	6 mbt  -16.79750   -1.22960   -0.27500    1.53000  # hc,c,c,oh
dihedral_coeff	7 mbt    0.00000    0.92410   -0.58890    1.42000  # hc,c,oh,ho
dihedral_coeff	8 mbt  -17.25850   -3.61570   -0.83640    1.53000  # oc,c,c,oc
dihedral_coeff	9 mbt  -17.25850   -3.61570   -0.83640    1.53000  # oc,c,c,oh

# EndBondTorsion Coeffs

dihedral_coeff	1 ebt   -0.24560    1.05170   -0.77950    0.47410    1.26350    0.55760    1.53000    1.42000  # c,c,oc,c
dihedral_coeff	2 ebt   -0.58000    0.90040    0.00000    0.00000    0.53430    0.90250    1.53000    0.96500  # c,c,oh,ho
dihedral_coeff	3 ebt   -0.16200    0.15640   -1.14080   -0.60540    1.33390    0.96480    1.42000    1.10100  # c,oc,c,hc
dihedral_coeff	4 ebt    0.21300    0.31200    0.07770    0.21300    0.31200    0.07770    1.10100    1.10100  # hc,c,c,hc
dihedral_coeff	5 ebt    0.96810    0.95510    0.04360    0.59030    0.66690    0.85840    1.10100    1.42000  # hc,c,c,oc
dihedral_coeff	6 ebt    0.96810    0.95510    0.04360    0.59030    0.66690    0.85840    1.10100    1.42000  # hc,c,c,oh
dihedral_coeff	7 ebt   -1.75540    1.31450    0.22630    0.24930    0.68030    0.00000    1.10100    0.96500  # hc,c,oh,ho
dihedral_coeff	8 ebt    1.01650    0.75530   -0.46090    1.01650    0.75530   -0.46090    1.42000    1.42000  # oc,c,c,oc
dihedral_coeff	9 ebt    1.01650    0.75530   -0.46090    1.01650    0.75530   -0.46090    1.42000    1.42000  # oc,c,c,oh

# AngleTorsion Coeffs

dihedral_coeff	1 at   -2.74660    1.48770   -0.89550    0.56760    0.94500    0.07030  111.27000  104.50000  # c,c,oc,c
dihedral_coeff	2 at   -3.59030    2.52250    0.48880    0.87260   -0.35770    0.38880  111.27000  105.80000  # c,c,oh,ho
dihedral_coeff	3 at   -0.77770    0.43400   -0.66530   -1.82340    1.63930    0.51440  104.50000  108.72800  # c,oc,c,hc
dihedral_coeff	4 at   -0.80850    0.55690   -0.24660   -0.80850    0.55690   -0.24660  110.77000  110.77000  # hc,c,c,hc
dihedral_coeff	5 at    2.36680    2.49200   -1.01220   -0.18920    0.49180    0.72730  110.77000  111.27000  # hc,c,c,oc
dihedral_coeff	6 at    2.36680    2.49200   -1.01220   -0.18920    0.49180    0.72730  110.77000  111.27000  # hc,c,c,oh
dihedral_coeff	7 at   -3.40600    1.63960    0.07370    0.00000   -0.28100   -0.59440  108.72800  105.80000  # hc,c,oh,ho
dihedral_coeff	8 at    0.55110    0.97370   -0.66730    0.55110    0.97370   -0.66730  111.27000  111.27000  # oc,c,c,oc
dihedral_coeff	9 at    0.55110    0.97370   -0.66730    0.55110    0.97370   -0.66730  111.27000  111.27000  # oc,c,c,oh

# AngleAngleTorsion Coeffs

dihedral_coeff	1 aat  -19.00590  111.27000  104.50000  # c,c,oc,c
dihedral_coeff	2 aat  -12.10380  111.27000  105.80000  # c,c,oh,ho
dihedral_coeff	3 aat  -16.44380  104.50000  108.72800  # c,oc,c,hc
dihedral_coeff	4 aat  -12.56400  110.77000  110.77000  # hc,c,c,hc
dihedral_coeff	5 aat  -20.20060  110.77000  111.27000  # hc,c,c,oc
dihedral_coeff	6 aat  -20.20060  110.77000  111.27000  # hc,c,c,oh
dihedral_coeff	7 aat  -10.50930  108.72800  105.80000  # hc,c,oh,ho
dihedral_coeff	8 aat  -14.04840  111.27000  111.27000  # oc,c,c,oc
dihedral_coeff	9 aat  -14.04840  111.27000  111.27000  # oc,c,c,oh

# BondBond13 Coeffs

dihedral_coeff	1 bb13    0.00000    1.53000    1.42000  # c,c,oc,c
dihedral_coeff	2 bb13    0.00000    1.53000    0.96500  # c,c,oh,ho
dihedral_coeff	3 bb13    0.00000    1.42000    1.10100  # c,oc,c,hc
dihedral_coeff	4 bb13    0.00000    1.10100    1.10100  # hc,c,c,hc
dihedral_coeff	5 bb13    0.00000    1.10100    1.42000  # hc,c,c,oc
dihedral_coeff	6 bb13    0.00000    1.10100    1.42000  # hc,c,c,oh
dihedral_coeff	7 bb13    0.00000    1.10100    0.96500  # hc,c,oh,ho
dihedral_coeff	8 bb13    0.00000    1.42000    1.42000  # oc,c,c,oc
dihedral_coeff	9 bb13    0.00000    1.42000    1.42000  # oc,c,c,oh

# Improper Coeffs

improper_coeff	1    0.00000    0.00000  # c,c,hc,hc
improper_coeff	2    0.00000    0.00000  # c,c,hc,oc
improper_coeff	3    0.00000    0.00000  # c,c,oc,hc
improper_coeff	4    0.00000    0.00000  # c,c,oh,hc
improper_coeff	5    0.00000    0.00000  # c,hc,hc,hc
improper_coeff	6    0.00000    0.00000  # c,hc,hc,oc
improper_coeff	7    0.00000    0.00000  # c,hc,hc,oh

# AngleAngle Coeffs

improper_coeff	1 aa    0.27380   -0.48250    0.27380  110.77000  110.77000  107.66000  # c,c,hc,hc
improper_coeff	2 aa    3.91770    2.59260    0.16890  110.77000  111.27000  108.72800  # c,c,hc,oc
improper_coeff	3 aa    0.16890    2.59260    3.91770  111.27000  110.77000  108.72800  # c,c,oc,hc
improper_coeff	4 aa    0.16890    2.59260    3.91770  111.27000  110.77000  108.72800  # c,c,oh,hc
improper_coeff	5 aa   -0.31570   -0.31570   -0.31570  107.66000  107.66000  107.66000  # c,hc,hc,hc
improper_coeff	6 aa    2.42590    2.42590    2.12830  107.66000  108.72800  108.72800  # c,hc,hc,oc
improper_coeff	7 aa    2.42590    2.42590    2.12830  107.66000  108.72800  108.72800  # c,hc,hc,oh


# --- Thermo Output ---
thermo_style custom step time temp press enthalpy etotal ke pe ebond eangle edihed eimp evdwl ecoul elong etail vol lx ly lz density pxx pyy pzz
thermo_modify flush yes
thermo 500

# --- Velocity initialization at T_START (once only — Rule A) ---
velocity all create 440.0 444649 mom yes rot yes dist gaussian

# --- Temperature staircase (inherits momenta across steps — Rule A) ---
variable temps index 440 420 400 380 360 340 320 300 280 260 240 220 200 180 160 140 120 100
label TEMP_LOOP
  timestep 1
  fix npt_tg all npt temp ${temps} ${temps} 100 iso 1.0 1.0 1000.0
  fix npt_tg all npt temp 440 ${temps} 100 iso 1.0 1.0 1000.0
  fix npt_tg all npt temp 440 440 100 iso 1.0 1.0 1000.0
  run 125000
PPPM Kokkos initialization ...
  using 12-bit tables for long-range coulomb
  G vector (1/distance) = 0.30317895
  grid = 30 30 30
  stencil order = 5
  estimated absolute RMS force accuracy = 0.00030405438
  estimated relative force accuracy = 9.1565074e-07
  using double precision cuFFT
  3d grid and FFT values/proc = 50653 27000
Generated 10 of 10 mixed pair_coeff terms from sixthpower/sixthpower mixing rule
Neighbor list info ...
  update: every = 1 steps, delay = 0 steps, check = yes
  max neighbors/atom: 4000, page size: 100000
  master list distance cutoff = 11.5
  ghost atom cutoff = 11.5
  binsize = 11.5, bins = 4 4 4
  1 neighbor lists, perpetual/occasional/extra = 1 0 0
  (1) pair lj/class2/coul/long/kk, perpetual
      attributes: full, newton off, kokkos_device
      pair build: full/bin/kk/device
      stencil: full/bin/3d
      bin: kk/device
Per MPI rank memory allocation (min/avg/max) = 32.74 | 32.74 | 32.74 Mbytes
   Step          Time           Temp          Press         Enthalpy        TotEng         KinEng         PotEng         E_bond        E_angle        E_dihed        E_impro         E_vdwl         E_coul         E_long         E_tail         Volume           Lx             Ly             Lz          Density          Pxx            Pyy            Pzz      
         0   0              440            2734.5191      9747.9385      7003.0897      9205.8145     -2202.7248      2347.7263      4946.4439     -8521.5255     -53.124684     -2952.5529      6925.9428     -4895.6347     -466.42323      68827.433      40.981438      40.981438      40.981438      1.0633283      332.05042      4592.8797      3278.6273    
       500   500            440.35223      1517.6935      11679.841      10112.936      9213.1839      899.75164      3509.1774      6515.7617     -8376.3415     -74.425405     -2724.0029      6938.9795     -4889.3972     -453.48088      70791.769      41.367657      41.367657      41.367657      1.033823       2375.1996      1759.3871      418.49371    
      1000   1000           436.31835     -1193.4311      8939.2361      10194.843      9128.7859      1066.0575      3501.1461      6511.3319     -8339.799      -73.264265     -2601.211       6947.0977     -4879.2439     -445.00116      72140.741      41.628766      41.628766      41.628766      1.0144914     -1055.8288     -1848.7713     -675.69302    
      1500   1500           439.2536      -2140.9795      8079.4463      10344.808      9190.1981      1154.6098      3494.7314      6413.1853     -8202.154      -70.567358     -2554           6952.9608     -4879.5464     -442.47894      72551.958      41.707713      41.707713      41.707713      1.0087414     -2601.462      -673.12597     -3148.3504    
      2000   2000           441.02221      879.30327      11548.159      10621.361      9227.2015      1394.1595      3583.9229      6504.588      -8213.5823     -77.12638      -2477.192       6955.5251     -4881.9759     -444.19253      72272.07       41.654011      41.654011      41.654011      1.0126479      1476.6569      1050.9458      110.30711    
      2500   2500           439.48707      1255.916       11899.422      10565.967      9195.0828      1370.8837      3521.8814      6533.594      -8234.1909     -76.321901     -2468.7556      6974.6186     -4879.9419     -440.96059      72801.775      41.755529      41.755529      41.755529      1.0052799      1215.9883      1247.4118      1304.3477    
      3000   3000           439.26116      103.99487      10589.502      10479.304      9190.3563      1288.9476      3494.9007      6443.4794     -8166.6352     -78.249519     -2499.8103      6968.5084     -4873.2459     -441.83018      72658.49       41.728117      41.728117      41.728117      1.0072623     -218.75925      667.48715     -136.74329    
      3500   3500           437.12486     -73.86952       10260.71       10338.24       9145.6601      1192.5804      3515.0046      6407.6737     -8188.6118     -77.611943     -2562.7763      6976.8876     -4877.9855     -446.07894      71966.441      41.595212      41.595212      41.595212      1.0169484      171.40316     -1083.2484      690.23671    
      4000   4000           436.09272      554.01501      10986.166      10399.924      9124.0652      1275.8592      3436.9399      6517.696      -8200.6848     -75.762528     -2494.7978      6966.263      -4873.7945     -442.44861      72556.931      41.708666      41.708666      41.708666      1.0086722      7.1228289      764.18293      890.73929    
      4500   4500           431.83509     -95.875073      10270.198      10372.623      9034.9857      1337.6371      3578.6175      6424.0766     -8223.512      -73.145954     -2473.4675      6979.8706     -4874.8021     -438.24517      73252.863      41.841592      41.841592      41.841592      0.9990894      331.23174     -413.01903     -205.83793    
      5000   5000           434.38012      1336.3265      12033.14       10612.019      9088.2338      1523.7855      3499.634       6523.1733     -8118.2065     -75.053273     -2437.6481      7006.0726     -4874.1864     -440.2497       72919.331      41.777992      41.777992      41.777992      1.0036592      2867.0899      1360.2482     -218.35875    
      5500   5500           445.77557     -70.646911      10759.909      10835.488      9326.6529      1508.8356      3486.0077      6718.6142     -8246.6095     -77.99251      -2488.8283      6988.0388     -4870.3947     -437.63147      73355.587      41.861141      41.861141      41.861141      0.99769033     428.63114     -1358.9245      718.3526     
      6000   6000           439.91763     -81.722693      10737.147      10824.905      9204.0912      1620.8136      3493.9528      6660.4507     -8150.5184     -79.413783     -2424.8928      6993.7665     -4872.5315     -435.98993      73631.778      41.913613      41.913613      41.913613      0.99394801     809.17587     -579.79917     -474.54478    
      6500   6500           443.5929       1209.5772      12049.999      10757.445      9280.9863      1476.4582      3492.3842      6385.2153     -8104.8199     -72.330324     -2354.2897      7001.6399     -4871.3411     -438.12951      73272.202      41.845274      41.845274      41.845274      0.99882572     970.33284      1827.8333      830.56538    
      7000   7000           442.5452       295.84033      10977.651      10662.423      9259.066       1403.3566      3436.8781      6545.278      -8143.101      -78.155019     -2473.9499      6989.8434     -4873.4369     -439.3899       73062.02       41.805224      41.805224      41.805224      1.0016991      959.19611     -178.95375      107.27863    
      7500   7500           435.87777     -995.98675      9502.1158      10574.425      9119.5679      1454.8568      3420.0441      6569.9717     -8186.2745     -73.773594     -2409.3102      7002.0314     -4867.832      -434.86179      73822.796      41.949826      41.949826      41.949826      0.99137615    -2032.4918     -1422.1741      466.70565    
      8000   8000           433.45585      259.84185      10830.385      10551.505      9068.8958      1482.6094      3508.4387      6592.7657     -8180.4949     -72.574372     -2475.6473      6986.7183     -4876.5967     -436.22464      73592.16       41.906094      41.906094      41.906094      0.9944831     -1322.7874      363.38809      1738.9249    
      8500   8500           438.45837     -1263.7513      9202.4973      10553.933      9173.5601      1380.3726      3445.2431      6499.069      -8151.3064     -72.83293      -2475.9411      7004.7277     -4868.5867     -437.80826      73325.966      41.855506      41.855506      41.855506      0.99809336    -450.45814     -2462.5908     -878.20505    
      9000   9000           441.61362      561.03128      11305.441      10706.124      9239.5751      1466.5487      3435.9104      6525.1258     -8145.9372     -75.293062     -2406.6928      7002.4618     -4869.0262     -438.27645      73247.635      41.840597      41.840597      41.840597      0.99916072     40.297076      308.55396      1334.2428    
      9500   9500           443.49808      526.71206      11392.001      10827.328      9279.0024      1548.3261      3488.0383      6567.1433     -8144.2996     -72.869288     -2430.4934      7006.3077     -4865.5009     -436.71122      73510.164      41.890524      41.890524      41.890524      0.99559239     831.85882     -22.302863      770.58024    
     10000   10000          444.54523     -936.15878      9785.0582      10785.904      9300.9113      1484.9927      3533.8593      6542.3286     -8159.7233     -76.498011     -2513.6546      7024.305      -4865.6242     -437.92523      73306.381      41.851779      41.851779      41.851779      0.99836002    -982.69303     -1482.1149     -343.66844    
     10500   10500          428.65541     -1462.8158      8865.4707      10425.245      8968.4596      1456.7854      3457.5455      6485.3189     -8127.0263     -76.960042     -2432.3247      7017.2217     -4866.9896     -439.08189      73113.272      41.814997      41.814997      41.814997      1.0009969     -2504.3731     -169.75965     -1714.3146    
     11000   11000          439.49449      725.91616      11583.579      10806.834      9195.238       1611.5964      3581.9623      6559.8021     -8128.4648     -68.630637     -2475.8551      7013.5894     -4870.807      -437.54788      73369.602      41.863807      41.863807      41.863807      0.99749975     120.19857     -335.05002      2392.5999    
     11500   11500          445.19748     -440.21278      10383.295      10857.775      9314.5577      1543.2173      3548.7672      6565.9271     -8178.8271     -77.321576     -2460.7999      7012.1937     -4866.7222     -434.37263      73905.931      41.965567      41.965567      41.965567      0.99026098    -1379.7818     -31.18196       90.325373    
     12000   12000          442.40321      590.89434      11600.864      10967.906      9256.0953      1711.8106      3595.7292      6596.9169     -8156.0677     -78.616415     -2388.2249      7011.7282     -4869.6547     -437.07177      73449.524      41.879002      41.879002      41.879002      0.99641435     621.9317       2509.3209     -1358.5696    
     12500   12500          441.69638      176.71586      10751.957      10563.32       9241.3066      1322.0137      3418.062       6452.2631     -8159.1359     -75.054519     -2447.5651      7007.3371     -4873.893      -438.59846      73193.858      41.830355      41.830355      41.830355      0.99989482     1424.124      -87.230345     -806.74606    
     13000   13000          437.68627     -842.04131      9655.9987      10555.444      9157.406       1398.0384      3437.733       6548.471      -8114.1454     -77.776384     -2509.351       6983.4343     -4870.327      -438.30465      73242.922      41.839699      41.839699      41.839699      0.99922501    -53.075962     -2239.2718     -233.77613    
     13500   13500          438.47364      496.50736      11303.052      10774.382      9173.8796      1600.5021      3505.4845      6574.1546     -8184.8258     -74.350152     -2329.5475      6984.3285     -4874.7421     -439.70187      73010.182      41.795335      41.795335      41.795335      1.0024103      1374.231      -38.346655      153.63774    
     14000   14000          447.36803      1010.8663      11971.409      10878.875      9359.9707      1518.9044      3459.4431      6556.4193     -8176.7805     -73.593487     -2374.1518      6994.3373     -4866.7696     -433.18791      74108.056      42.00379       42.00379       42.00379       0.98756011     766.41703      1390.591       875.59093    
     14500   14500          445.92207      40.446846      10949.032      10905.499      9329.7179      1575.7814      3538.6758      6492.4427     -8130.7318     -69.464708     -2393.022       7003.3707     -4865.4893     -435.00132      73799.117      41.94534       41.94534       41.94534       0.99169425     1834.7074     -404.64212     -1308.7247    
     15000   15000          438.12012      643.8137       11440.182      10749.389      9166.4831      1582.9061      3560.9875      6493.9388     -8117.2413     -77.075667     -2433.2944      7018.254      -4862.6629     -436.34483      73571.89       41.902246      41.902246      41.902246      0.9947571      1772.0934      665.187       -505.83933    
     15500   15500          438.36946      1970.9684      12862.905      10738.885      9171.6999      1567.1847      3404.6468      6583.675      -8126.0272     -76.34479      -2340.3526      6989.9545     -4868.3669     -434.44886      73892.964      41.963113      41.963113      41.963113      0.99043475     1897.1201      3195.8744      819.91083    
     16000   16000          440.81934     -530.42009      10173.516      10750.197      9222.957       1527.2399      3495.4562      6447.821      -8155.1289     -74.627805     -2310.8503      6991.0432     -4866.4736     -430.62758      74548.671      42.086871      42.086871      42.086871      0.98172319    -597.97451     -389.34127     -603.94448    
     16500   16500          435.00759      154.79923      11019.788      10852.975      9101.3618      1751.6127      3482.0843      6625.6814     -8083.0942     -76.60546      -2330.0539      6999.5209     -4865.9202     -434.46489      73890.237      41.962597      41.962597      41.962597      0.99047131    -384.30864      25.157796      823.54854    
     17000   17000          440.89511     -40.448671      10788.561      10832.753      9224.5423      1608.2111      3483.0129      6573.7811     -8127.1332     -74.120137     -2358.9942      6985.3752     -4873.7106     -428.52708      74914.084      42.155524      42.155524      42.155524      0.97693458     533.15506     -935.48817      280.98709    
     17500   17500          440.85173      162.49349      10953.892      10775.991      9223.6347      1552.356       3408.6637      6525.6741     -8144.3046     -76.869129     -2290.6451      6998.066      -4868.229      -427.63599      75070.187      42.184784      42.184784      42.184784      0.97490312    -933.30909      900.94455      519.84502    
     18000   18000          428.58881      872.23505      11586.798      10646.826      8967.0662      1679.7595      3521.2962      6498.7516     -8020.7499     -74.072215     -2388.3945      7004.8302     -4861.902      -434.44652      73893.361      41.963188      41.963188      41.963188      0.99042943     1731.1972      553.89275      331.6152     
     18500   18500          435.23074      16.62098       10705.168      10687.232      9106.0307      1581.2016      3475.7608      6491.2731     -8070.8533     -75.087959     -2365.6032      6997.0726     -4871.3604     -433.8584       73993.527      41.98214       41.98214       41.98214       0.98908867     1050.9596      283.90358     -1285.0002    
     19000   19000          440.02412     -1878.689       8980.3795      11040.543      9206.3191      1834.2236      3626.2854      6619.1151     -8050.0143     -78.120121     -2406.7655      6994.6211     -4870.8982     -426.94401      75191.859      42.207563      42.207563      42.207563      0.97332558    -2686.524      -672.59296     -2276.9502    
     19500   19500          438.7129      -714.65281      10320.244      11099.29       9178.8854      1920.4047      3659.5216      6655.8214     -8134.8903     -79.095985     -2310.2119      6993.1296     -4863.8697     -429.4864       74746.752      42.124114      42.124114      42.124114      0.9791216     -1312.075      -148.58206     -683.30138    
     20000   20000          446.31131     -1005.0717      9767.044       10854.451      9337.8618      1516.5894      3497.6296      6470.869      -8098.7258     -72.275697     -2407.8624      6993.0226     -4866.0679     -432.73548      74185.536      42.018423      42.018423      42.018423      0.98652868     119.18088     -1836.2067     -1298.1894    
     20500   20500          439.55769     -533.13313      10265.741      10846.566      9196.5605      1650.0055      3485.8183      6636.3861     -8122.274      -73.967212     -2387.0628      6977.6071     -4866.5021     -429.74208      74702.281      42.115758      42.115758      42.115758      0.97970449     502.60984     -880.34699     -1221.6622    
     21000   21000          443.71632      92.149895      11023.006      10922.557      9283.5685      1638.9889      3533.979       6543.633      -8147.4613     -72.410874     -2368.804       7018.3336     -4868.2805     -429.50705      74743.159      42.123439      42.123439      42.123439      0.97916867    -372.96574      588.29102      61.124401    
     21500   21500          446.55376     -806.18241      10230.823      11104.987      9342.9344      1762.0531      3583.0619      6538.9989     -8059.8303     -76.9631       -2376.4868      7016.9576     -4863.6852     -431.77543      74350.487      42.049542      42.049542      42.049542      0.98434001    -491.46427     -1218.283      -708.79997    
     22000   22000          446.14477      430.48925      11759.609      11288.7        9334.3773      1954.3227      3615.0366      6698.5039     -8131.3803     -80.791018     -2283.8793      7002.1719     -4865.3393     -427.99903      75006.511      42.172854      42.172854      42.172854      0.97573076     810.00367      1074.2789     -592.8148     
     22500   22500          439.90588      230.23031      11056.214      10807.951      9203.8453      1604.1061      3431.5932      6753.5178     -8184.2507     -77.557957     -2444.2196      6994.8335     -4869.8101     -434.17883      73938.92       41.97181       41.97181       41.97181       0.98981916     1092.2005     -841.47679      439.96723    
     23000   23000          442.27672      350.2365       11273.361      10899.054      9253.4488      1645.6049      3475.2873      6599.0633     -8131.4049     -69.598968     -2371.5922      7015.2397     -4871.3893     -438.0776       73280.883      41.846926      41.846926      41.846926      0.99870739    -51.672319      1138.636      -36.254194    
     23500   23500          441.34743     -209.12642      10757.23       10983.588      9234.0059      1749.5819      3450.2369      6677.1728     -8072.6586     -77.029331     -2370.4677      7010.4279     -4868.1        -432.54548      74218.122      42.024574      42.024574      42.024574      0.98609554     807.26721     -1463.7836      29.137089    
     24000   24000          441.48858     -1032.0301      9925.3463      11053.21       9236.9591      1816.2511      3536.3507      6540.2675     -8007.1316     -75.335289     -2313.2264      7002.4629     -4867.1367     -428.40378      74935.646      42.159568      42.159568      42.159568      0.97665349    -2854.3436     -1506.8505      1265.1038    
     24500   24500          437.30108     -458.46735      10370.635      10868.867      9149.3468      1719.5206      3469.4424      6494.2161     -7990.477      -75.620296     -2330.7928      7019.7836     -4867.0315     -430.81808      74515.707      42.080666      42.080666      42.080666      0.98215749    -996.09682     -2864.8344      2485.5292    
     25000   25000          435.53869      801.20779      11638.937      10768.867      9112.4735      1656.3937      3496.4173      6542.0936     -8129.4729     -75.568062     -2339.7466      7023.77       -4861.0995     -431.13063      74461.685      42.070495      42.070495      42.070495      0.98287004     797.90669      2149.7655     -544.04877    
     25500   25500          439.0872       862.40373      11887.194      10947.819      9186.7166      1761.1021      3443.8469      6630.5697     -8066.5307     -74.507009     -2337.1937      7024.0031     -4859.0861     -429.82247      74688.309      42.113132      42.113132      42.113132      0.97988775    -275.85754     -61.943577      2925.0123    
     26000   26000          434.95602     -241.50396      10693.089      10955.839      9100.2829      1855.5566      3575.1734      6575.7249     -8021.0672     -74.172478     -2336.8527      7003.0802     -4866.3296     -430.32755      74600.647      42.096649      42.096649      42.096649      0.98103921    -369.57267     -1130.0734      775.13419    
     26500   26500          438.66912      1117.6077      12294.686      11088.976      9177.9693      1911.007       3523.4152      6756.2118     -8092.3909     -76.588078     -2358.1409      7019.8876     -4861.3877     -433.97443      73973.744      41.978399      41.978399      41.978399      0.98935319     1031.6328     -91.338011      2412.5284    
     27000   27000          437.16832     -564.9369       10257.87       10868.724      9146.5693      1722.1545      3430.3914      6614.7061     -8073.3635     -75.813437     -2336.2647      7028.5313     -4866.0326     -432.99218      74141.555      42.010117      42.010117      42.010117      0.98711391    -1018.0616      751.45714     -1428.2063    
     27500   27500          435.65324     -423.70994      10447.191      10902.626      9114.8704      1787.7561      3491.5553      6612.8743     -8039.1965     -75.340248     -2376.2942      7030.6094     -4856.4519     -435.57146      73702.518      41.927031      41.927031      41.927031      0.99299402    -1116.8876      1078.7963     -1233.0385    
     28000   28000          439.38977     -900.74218      9912.6092      10886.659      9193.0471      1693.612       3502.0018      6573.4488     -8098.7844     -77.256352     -2371.1451      7024.2869     -4858.9395     -432.94921      74148.914      42.011507      42.011507      42.011507      0.98701593    -1763.1896     -405.70774     -533.32922    
     28500   28500          437.04803      372.02679      11213.915      10810.321      9144.0524      1666.2681      3477.1848      6546.7593     -8118.3288     -72.979259     -2350.7196      7044.4994     -4860.1479     -431.56517      74386.71       42.05637       42.05637       42.05637       0.98386068     563.38779      170.09595      382.59661    
     29000   29000          444.91298      692.44199      11939.171      11188.52       9308.6055      1879.9143      3503.5929      6744.3002     -8108.9266     -76.438351     -2345.5459      7019.3671     -4856.435      -431.87953      74332.565      42.046163      42.046163      42.046163      0.98457734     1643.9697      1086.6491     -653.29289    
     29500   29500          442.25664      269.05208      11388.848      11094.838      9253.0286      1841.8091      3520.0215      6578.4386     -8034.6606     -71.452447     -2325.0979      7034.3386     -4859.7787     -428.44079      74929.172      42.158354      42.158354      42.158354      0.97673787    -678.20761      1304.5012      180.86267    
     30000   30000          440.52758      2282.5149      13349.314      10880.93       9216.8526      1664.0778      3403.1474      6605.3741     -8150.9864     -77.306734     -2278.0816      7026.7554     -4864.8244     -432.93087      74152.055      42.012101      42.012101      42.012101      0.98697413     2768.085       2629.9125      1449.5471    
     30500   30500          436.59947      793.82259      11766.331      10906.112      9134.6676      1771.4439      3561.3415      6533.3963     -8113.515      -70.733109     -2300.6702      7028.811      -4867.1866     -432.04806      74303.57       42.040696      42.040696      42.040696      0.98496155    -110.35478      426.60709      2065.2155    
     31000   31000          436.47069     -337.46557      10611.623      10973.552      9131.9732      1841.579       3574.6957      6567.9316     -8051.9267     -80.983331     -2345.1029      7038.1058     -4861.1412     -436.53979      73539.033      41.896007      41.896007      41.896007      0.99520155    -53.574616     -436.61236     -522.20974    
     31500   31500          441.60262     -758.31363      10276.98       11096.84       9239.3449      1857.4954      3519.0785      6674.6243     -8034.8731     -74.791616     -2389.5741      7024.8963     -4861.8648     -433.03852      74133.621      42.008619      42.008619      42.008619      0.98721954    -227.39998     -2175.8864      128.34552    
     32000   32000          440.15484      147.46143      11137.963      10977.001      9209.0541      1767.9464      3468.0216      6664.5279     -8094.4673     -77.253788     -2334.6178      7008.836      -4867.1001     -428.91444      74846.427      42.14283       42.14283       42.14283       0.97781768    -1053.1177      1533.1775     -37.675474    
     32500   32500          435.77764     -488.8074       10488.792      11015.503      9117.473       1898.0302      3574.6672      6663.7497     -8047.3244     -77.846782     -2379.8697      7027.0816     -4862.4273     -434.49298      73885.46       41.961692      41.961692      41.961692      0.99053535    -1552.6505      294.07058     -207.84223    
     33000   33000          443.19853     -340.96615      10708.489      11077.034      9272.7351      1804.2993      3493.8011      6608.5121     -8053.7605     -72.998038     -2330.5626      7024.4614     -4865.1543     -433.15009      74114.526      42.005012      42.005012      42.005012      0.9874739      373.06846     -392.54371     -1003.4232    
     33500   33500          445.78576      497.24035      11823.725      11282.705      9326.8659      1955.8394      3497.7389      6833.5235     -8115.5162     -81.062281     -2342.2987      7020.3415     -4856.8873     -430.29982      74605.455      42.097554      42.097554      42.097554      0.98097598    -702.19808      189.72445      2004.1947    
     34000   34000          434.76437     -1585.8347      9256.2009      10985.472      9096.273       1889.1989      3548.1016      6769.0163     -8171.3767     -75.04073      -2346.7245      7029.3709     -4864.1478     -429.35103      74770.319      42.12854       42.12854       42.12854       0.97881299    -1310.9223     -1965.873      -1480.7089    
     34500   34500          434.23208      157.58844      11086.197      10913.48       9085.1364      1828.3439      3495.5692      6619.1854     -8083.0529     -71.515553     -2302.7307      7029.6043     -4858.716      -427.17688      75150.868      42.199892      42.199892      42.199892      0.97385647    -199.70156     -446.16409      1118.631     
     35000   35000          438.59802      487.44919      11330.837      10803.833      9176.4818      1627.351       3497.3032      6543.3536     -8127.2391     -74.935428     -2385.3564      7037.0147     -4862.7895     -433.04527      74132.466      42.008401      42.008401      42.008401      0.98723493    -428.88849      343.10533      1548.1307    
     35500   35500          436.36305     -1099.8655      9775.8425      10968.596      9129.7212      1838.8747      3539.2741      6622.6507     -8098.9031     -77.029388     -2316.0897      7025.0978     -4856.1257     -431.72434      74359.286      42.051201      42.051201      42.051201      0.98422355    -1126.5259     -405.16098     -1767.9096    
     36000   36000          448.02317     -60.469599      11202.053      11267.777      9373.6778      1894.0992      3546.795       6615.0168     -8063.0714     -71.997109     -2313.8947      7038.1957     -4856.9451     -430.75217      74527.109      42.082813      42.082813      42.082813      0.98200723     230.51597     -337.63156     -74.29321     
     36500   36500          441.30839      329.43657      11243.862      10882.753      9233.189       1649.5638      3474.1786      6500.4696     -8142.4202     -74.990519     -2280.6333      7030.8456     -4857.8859     -427.12091      75160.716      42.201735      42.201735      42.201735      0.97372888     298.1762       676.10041      14.033096    
     37000   37000          442.94266      813.40376      11890.244      10996.982      9267.3817      1729.6006      3451.5993      6599.8493     -8092.7343     -80.392312     -2307.4575      7025.0022     -4866.2661     -426.32917      75300.299      42.227843      42.227843      42.227843      0.9719239     -121.0424       881.77537      1679.4783    
     37500   37500          443.83708      1206.2817      12454.982      11142.009      9286.095       1855.9142      3498.9554      6530.6402     -7972.365      -77.438674     -2306.7504      7037.6851     -4854.8123     -430.14097      74633.006      42.102735      42.102735      42.102735      0.98061385    -408.73206      1879.5646      2148.0126    
     38000   38000          444.34414      53.076114      11204.067      11146.47       9296.704       1849.766       3541.6347      6660.0052     -8097.523      -77.270402     -2350.129       7035.9217     -4862.8732     -431.43775      74408.681      42.06051       42.06051       42.06051       0.98357018     626.01959     -9.2125698     -457.57868    
     38500   38500          434.20718     -1173.9959      9610.9607      10890.875      9084.6153      1806.2596      3479.269       6535.6907     -8043.4791     -78.455557     -2271.673       7043.4136     -4858.5061     -429.44083      74754.684      42.125604      42.125604      42.125604      0.97901771    -1939.3589     -595.29393     -987.33479    
     39000   39000          435.26839     -197.97711      10705.429      10921.478      9106.8182      1814.6599      3463.6044      6630.1408     -7986.0909     -78.762558     -2390.2965      7041.4907     -4865.4261     -429.02272      74827.537      42.139284      42.139284      42.139284      0.97806452    -823.8149       1050.4177     -820.53415    
     39500   39500          433.39239      215.74946      11083.948      10850.951      9067.5681      1783.3825      3520.2605      6627.5363     -8107.4839     -80.021355     -2335.2733      7022.9267     -4864.5625     -433.52638      74050.197      41.992855      41.992855      41.992855      0.98833174    -485.5783      -955.93556      2088.7622    
     40000   40000          445.13616     -735.74155      10404.843      11208.318      9313.2747      1895.0433      3477.5477      6738.0637     -8051.9665     -76.713893     -2352.5931      7020.0267     -4859.3213     -428.71678      74880.935      42.149305      42.149305      42.149305      0.97736706    -972.96189     -1555.5336      321.27086    
     40500   40500          441.15628     -218.86585      10938.887      11176.021      9230.0065      1946.0147      3576.9747      6721.0858     -8070.4373     -79.392205     -2344.966       7011.9797     -4869.23       -432.118        74291.544      42.038427      42.038427      42.038427      0.985121       1238.4404     -2028.1136      133.07569    
     41000   41000          439.17066      311.28909      11360.128      11018.531      9188.4628      1830.0682      3504.7061      6688.2466     -8112.3565     -75.334079     -2314.6959      7006.3836     -4866.8816     -426.64641      75244.307      42.217374      42.217374      42.217374      0.97264714     174.52517     -1878.5345      2637.8766    
     41500   41500          440.12061      724.97121      11675.908      10886.179      9208.338       1677.8412      3435.6744      6571.9435     -8102.0543     -77.881955     -2298.0238      7013.3553     -4865.1718     -429.79408      74693.243      42.114059      42.114059      42.114059      0.97982303     2000.6609      204.88482     -30.632131    
     42000   42000          436.65709      300.9311       11316.323      10990.465      9135.8732      1854.5919      3422.682       6673.5569     -8019.5771     -78.596743     -2317.7587      7033.1786     -4858.8931     -432.37037      74248.181      42.030247      42.030247      42.030247      0.98569633     1690.6208     -1131.0785      343.25108    
     42500   42500          444.74227      1188.9454      12239.341      10947.253      9305.0337      1642.219       3499.7347      6409.8363     -8054.9176     -70.772661     -2307.4517      7029.7127     -4863.9228     -430.81166      74516.817      42.080875      42.080875      42.080875      0.98214286     588.58582      1587.3113      1390.9389    
     43000   43000          428.14527      170.78418      11049.079      10863.382      8957.7862      1905.596       3512.6193      6630.8496     -8007.5853     -77.257731     -2323.4371      7030.0532     -4859.6462     -430.5857       74555.921      42.088235      42.088235      42.088235      0.98162773    -1087.224       2413.9684     -814.39192    
     43500   43500          444.66803     -1277.8802      9613.7162      11006.29       9303.4804      1702.8095      3504.938       6538.5291     -8085.9974     -73.300404     -2348.4075      7028.0106     -4860.9628     -429.62503      74722.634      42.119582      42.119582      42.119582      0.97943763    -146.25918     -1206.0705     -2481.3108    
     44000   44000          442.66256     -79.910872      10859.332      10946.696      9261.5215      1685.1748      3468.8504      6446.8305     -8041.8169     -73.19761      -2272.3009      7022.2194     -4865.41       -428.24396      74963.612      42.164812      42.164812      42.164812      0.97628913    -204.84189      357.03712     -391.92784    
     44500   44500          436.9597      -411.28357      10565.433      11016.125      9142.2044      1873.9201      3551.5943      6627.6426     -8044.6716     -71.686479     -2371.7645      7037.9324     -4855.1266     -427.2472       75138.499      42.197576      42.197576      42.197576      0.97401679    -502.32136     -436.16373     -295.36562    
     45000   45000          442.36412      519.05294      11666.897      11099.788      9255.2774      1844.5106      3522.7285      6660.2224     -8115.8477     -73.341911     -2306.9156      7019.3067     -4861.6417     -428.51204      74916.713      42.156017      42.156017      42.156017      0.97690031    -381.93798      1130.4472      808.64965    
     45500   45500          450.6102      -1476.7653      9730.767       11351.538      9427.8044      1923.7333      3513.6079      6701.2126     -8013.1943     -75.677614     -2354.6604      7017.0502     -4864.605      -426.5869       75254.805      42.219337      42.219337      42.219337      0.97251146     1070.076      -3067.5522     -2432.8197    
     46000   46000          439.80017      334.35727      11383.213      11018.481      9201.6337      1816.8474      3517.4235      6683.3417     -8120.0714     -83.431025     -2326.2795      7013.6845     -4867.8204     -429.19527      74797.454      42.133636      42.133636      42.133636      0.9784579      1874.1165      294.7637      -1165.8084    
     46500   46500          435.08744     -686.77223      10157.723      10912.847      9103.0324      1809.8148      3417.3043      6672.3428     -8068.5112     -76.228163     -2300.1338      7023.746      -4858.7052     -425.8061       75392.8        42.245127      42.245127      42.245127      0.97073142    -295.05628     -464.31305     -1300.9474    
     47000   47000          444.01929      527.4493       11591.924      11019.11       9289.9073      1729.2027      3464.2887      6492.161      -7979.4839     -77.200981     -2341.9278      7026.0511     -4854.6853     -431.10665      74465.828      42.071275      42.071275      42.071275      0.98281536     1072.5591      544.32694     -34.53816     
     47500   47500          443.02507      1064.3325      12216.185      11060.731      9269.1059      1791.6249      3489.55        6502.4162     -7978.3246     -72.87112      -2306.055       7018.8729     -4861.9634     -431.26289      74438.85       42.066194      42.066194      42.066194      0.98317155     1561.5544      163.82389      1467.6191    
     48000   48000          438.13395     -428.70788      10460.113      10926.512      9166.7724      1759.7399      3483.0469      6519.9328     -7989.5415     -74.162275     -2346.9625      7020.6312     -4853.2048     -430.34924      74596.888      42.095942      42.095942      42.095942      0.98108865     30.903982     -793.53942     -523.48819    
     48500   48500          436.12437      822.21024      11847.97       10957.336      9124.7275      1832.6081      3466.8158      6679.1178     -8050.9623     -78.133652     -2339.4416      7020.6025     -4865.3904     -432.21635      74274.64       42.035239      42.035239      42.035239      0.98534519     1639.3982     -394.51214      1221.7447    
     49000   49000          446.3844      -1387.8863      9602.013       11117.351      9339.3909      1777.9601      3466.0639      6587.4893     -8011.9277     -79.937101     -2335.5382      7011.5885     -4859.7785     -428.80715      74865.155      42.146344      42.146344      42.146344      0.97757308    -1142.2887     -1771.4654     -1249.9047    
     49500   49500          437.85141      191.75079      11301.926      11092.012      9160.8611      1931.151       3613.5428      6594.1315     -8012.4017     -73.247239     -2346.3486      7016.3605     -4860.8862     -427.67427      75063.467      42.183525      42.183525      42.183525      0.9749904     -275.137        114.51922      735.87014    
     50000   50000          433.89026      139.31993      10974.756      10825.288      9077.9847      1747.3034      3469.0099      6639.9505     -8057.0984     -77.339112     -2389.744       7019.1333     -4856.6089     -436.39761      73562.991      41.900557      41.900557      41.900557      0.99487743    -1192.9584      1943.7277     -332.80948    
     50500   50500          435.60761     -839.19905      9739.4798      10646.82       9113.9156      1532.9048      3539.7227      6394.1318     -8078.4573     -72.450712     -2404.3044      7017.8353     -4863.5727     -433.02431      74136.054      42.009079      42.009079      42.009079      0.98718715    -1005.8974     -1043.4693     -468.23051    
     51000   51000          445.45155      415.31749      11564.141      11113.346      9319.8735      1793.4728      3473.6011      6639.2714     -8064.8359     -79.234705     -2359.0741      7037.5866     -4853.8416     -431.33907      74425.703      42.063717      42.063717      42.063717      0.98334522    -951.87556      382.95438      1814.8736    
     51500   51500          438.19821      353.67135      11503.52       11117.781      9168.117       1949.6641      3427.0161      6723.642      -8032.0708     -78.214569     -2281.8647      7047.3731     -4856.217      -429.2633       74785.6        42.13141       42.13141       42.13141       0.97861299     1689.1688     -1340.2259      712.07112    
     52000   52000          439.85671      990.07198      12024.078      10939.494      9202.8165      1736.6778      3474.5511      6495.6575     -8073.1798     -74.732781     -2277.2777      7047.0625     -4855.403      -427.38688      75113.943      42.192979      42.192979      42.192979      0.97433522     1946.6899      497.00416      526.52185    
     52500   52500          434.83708      2859.1152      14050.386      10920.981      9097.7943      1823.1864      3428.3252      6660.2326     -8095.8053     -77.585728     -2265.3261      7035.4145     -4862.0687     -427.74745      75050.625      42.18112       42.18112       42.18112       0.97515723     2920.9465      3506.0535      2150.3457    
     53000   53000          448.27856      1145.507       12516.773      11270.089      9379.021       1891.0681      3493.3899      6706.2534     -8062.9026     -75.907094     -2351.3647      7034.7516     -4853.1523     -430.18887      74624.696      42.101173      42.101173      42.101173      0.98072305     1674.425       1723.9009      38.195036    
     53500   53500          445.17988     -155.98067      11010.392      11180.022      9314.1896      1865.8324      3561.9707      6601.4294     -8055.6532     -77.00398      -2336.9944      7029.819      -4857.7351     -430.51207      74568.673      42.090634      42.090634      42.090634      0.98145987     914.60739     -531.78194     -850.76746    
     54000   54000          435.44828     -1835.8473      9086.9093      11109.342      9110.5821      1998.7598      3494.8131      6770.2719     -8096.2819     -76.507693     -2279.9742      7046.3205     -4859.8819     -424.99137      75537.331      42.272105      42.272105      42.272105      0.96887405    -959.87639     -2407.85       -2139.8154    
     54500   54500          431.98246      194.93437      11042.922      10829.726      9038.0691      1791.6568      3506.6213      6574.4949     -8079.7398     -78.529243     -2315.3488      7043.0792     -4858.9208     -428.08235      74991.912      42.170117      42.170117      42.170117      0.9759207     -171.19695     -442.61609      1198.6162    
     55000   55000          437.23127      522.00792      11417.946      10847.122      9147.8864      1699.2356      3439.024       6493.6033     -8008.0988     -75.498774     -2341.8084      7041.6545     -4849.6401     -428.14683      74980.617      42.168         42.168         42.168         0.97606771     1176.6335     -416.52405      805.91431    
     55500   55500          443.14725     -709.23738      10330.803      11108.506      9271.6622      1836.8439      3557.5142      6530.1207     -8025.1283     -75.038976     -2325.7921      7037.5294     -4862.361      -426.9681       75187.617      42.206769      42.206769      42.206769      0.97338049    -1602.2566     -686.45011      160.99462    
     56000   56000          447.43434      1527.5843      12635.954      10985.076      9361.358       1623.7177      3517.1574      6449.871      -8183.4668     -72.184498     -2258.3541      7034.1547     -4863.4599     -433.21925      74102.695      42.002777      42.002777      42.002777      0.98763155     1971.5143      1248.0562      1363.1823    
     56500   56500          438.79299      314.96851      11237.681      10893.264      9180.5611      1712.7024      3503.8587      6504.0797     -8101.4897     -75.06839      -2295.1591      7034.6315     -4858.1503     -428.15389      74979.382      42.167768      42.167768      42.167768      0.9760838      1527.654      -464.06897     -118.67947    
     57000   57000          430.59518     -621.66783      10123.658      10801.538      9009.0441      1792.4937      3507.0178      6562.7562     -8046.2038     -77.087184     -2337.4599      7039.0509     -4855.5803     -429.36202      74768.405      42.128181      42.128181      42.128181      0.97883805    -98.539756     -1069.7821     -696.68162    
     57500   57500          441.54013      358.97579      11421.47       11033.321      9238.0376      1795.2835      3503.2242      6561.0688     -8062.7636     -77.163566     -2302.1054      7032.1397     -4859.1166     -432.99625      74140.858      42.009986      42.009986      42.009986      0.98712318     725.91624      94.525414      256.48572    
     58000   58000          445.74886     -347.00428      10693.489      11067.208      9326.094       1741.114       3520.3005      6551.6594     -8054.6753     -71.680696     -2371.2719      7021.573      -4854.7911     -434.71732      73847.331      41.954473      41.954473      41.954473      0.99104678     287.85773     -2020.5922      691.72162    
     58500   58500          440.46518     -1584.5216      9440.5349      11160.841      9215.5471      1945.294       3572.6864      6728.1919     -8109.7064     -84.451226     -2326.9053      7022.3149     -4856.8363     -431.2311       74444.337      42.067227      42.067227      42.067227      0.98309909    -2078.5891     -691.97699     -1982.9987    
     59000   59000          440.43383     -1958.3121      8850.1045      10993.671      9214.8914      1778.7792      3511.1791      6575.0029     -8084.3516     -73.733508     -2314.6294      7026.5477     -4861.2361     -427.72306      75054.904      42.181921      42.181921      42.181921      0.97510163    -1348.1365     -3255.5876     -1271.2122    
     59500   59500          438.92507     -719.04495      10149.603      10927.865      9183.3246      1744.5406      3446.3207      6645.3052     -8087.7616     -76.762631     -2329.0632      7008.3587     -4861.8564     -432.56116      74215.433      42.024066      42.024066      42.024066      0.98613128    -175.70607      63.647274     -2045.076     
     60000   60000          444.27788     -1061.9359      9856.1789      10995.361      9295.3177      1700.0431      3539.4537      6548.4027     -8014.6877     -70.997009     -2455.1499      7013.3599     -4860.3386     -436.43831      73556.131      41.899254      41.899254      41.899254      0.99497022    -2083.2573     -800.7986      -301.75175    
     60500   60500          439.83608     -726.90274      10153.22       10941.578      9202.385       1739.1934      3603.0619      6615.4381     -8111.2553     -76.333048     -2444.3122      7017.2524     -4864.6584     -431.68801      74365.544      42.052381      42.052381      42.052381      0.98414072    -2257.8285     -1297.2006      1374.3208    
     61000   61000          441.28264     -955.54034      9854.5025      10895.446      9232.6504      1662.7955      3433.4831      6483.3792     -7967.3097     -69.778614     -2367.8863      7014.0397     -4863.1319     -429.77344      74696.83       42.114733      42.114733      42.114733      0.97977598    -1171.9518     -1668.5024     -26.166865    
     61500   61500          431.82772     -696.8186       10065.749      10822.622      9034.8317      1787.7905      3521.1845      6642.8574     -8062.5633     -71.75376      -2412.6789      7025.514      -4854.7695     -431.03688      74477.882      42.073545      42.073545      42.073545      0.98265629    -1391.3619     -1017.0509      317.95705    
     62000   62000          438.52228      297.09769      11280.52       10960.216      9174.8972      1785.3192      3483.6697      6677.7152     -8100.5413     -78.168703     -2382.0018      7036.1592     -4851.513      -434.26527      73924.202      41.969025      41.969025      41.969025      0.99001623     1437.9675      564.0051      -1110.6795    
     62500   62500          443.07504     -366.44794      10743.413      11141.731      9270.1515      1871.5799      3527.9195      6521.7404     -7948.6392     -74.506494     -2347.7139      7043.8394     -4851.0599     -430.72475      74531.853      42.083706      42.083706      42.083706      0.98194472    -1762.5541      518.42092      144.78936    
     63000   63000          440.84855     -264.66864      10787.601      11076.232      9223.5682      1852.6641      3467.4065      6714.8319     -8095.5742     -80.203603     -2331.7901      7035.2594     -4857.2658     -429.31534      74776.535      42.129708      42.129708      42.129708      0.97873163    -493.05035      82.130079     -383.08564    
     63500   63500          441.5394      -707.61796      10148.621      10919.296      9238.0223      1681.2735      3420.4211      6593.723      -8096.2915     -75.16541      -2337.9042      7035.1981     -4858.7076     -429.8782       74678.627      42.111312      42.111312      42.111312      0.9800148     -467.69383     -2178.4075      523.24745    
     64000   64000          431.53328      656.41964      11566.619      10844.93       9028.6712      1816.2583      3505.2803      6540.2901     -8056.2684     -73.981754     -2264.0773      7026.5893     -4861.5738     -425.84263      75386.332      42.243919      42.243919      42.243919      0.97081471     44.522346      1126.8825      797.85406    
     64500   64500          439.8952       1981.6322      13330.465      11157.898      9203.6219      1954.2757      3443.2979      6713.229      -8095.0979     -80.486938     -2205.4286      7035.9012     -4857.139      -427.03882      75175.165      42.204439      42.204439      42.204439      0.97354173     1970.7129      760.31791      3213.8656    
     65000   65000          442.70019      398.48882      11579.844      11143.617      9262.3088      1881.3081      3499.0291      6537.8633     -7971.6217     -79.990584     -2262.7814      7023.0414     -4864.2321     -427.68161      75062.179      42.183284      42.183284      42.183284      0.97500713     696.01997      715.87414     -216.42767    
     65500   65500          434.51782      662.58834      11681.937      10958.537      9091.1147      1867.4224      3461.3967      6621.4993     -8072.2771     -80.271755     -2236.0716      7036.1786     -4863.0317     -428.82781      74861.548      42.145667      42.145667      42.145667      0.97762018     458.15117      1087.8242      441.78967    
     66000   66000          439.20145      106.09876      11236.347      11120.447      9189.107       1931.34        3499.1498      6574.8304     -8008.235      -73.897788     -2240.8074      7032.5441     -4852.2441     -428.59344      74902.485      42.153348      42.153348      42.153348      0.97708586    -670.45463      1147.1963     -158.44539    
     66500   66500          444.42681      786.27984      12115.567      11258.81       9298.4336      1960.3766      3600.3953      6592.5246     -7982.3655     -79.245355     -2319.8401      7011.7244     -4862.8167     -429.67204      74714.459      42.118046      42.118046      42.118046      0.9795448      2927.6524     -465.36112     -103.4518     
     67000   67000          439.86725      1947.2261      13075.666      10973.603      9203.0371      1770.5664      3435.5724      6603.0279     -8038.3418     -73.325501     -2329.0898      7037.0034     -4864.2802     -433.69903      74020.719      41.987282      41.987282      41.987282      0.98872533     1685.942       2507.5811      1648.1552    
     67500   67500          438.47152     -426.17998      10547.57       11014.053      9173.8352      1840.2178      3503.4151      6619.4524     -8022.0192     -77.49923      -2355.6148      7034.3724     -4861.8888     -427.73529      75052.758      42.181519      42.181519      42.181519      0.97512951    -1817.2483      943.00031     -404.29197    
     68000   68000          435.04365     -116.1286       10829.6        10956.44       9102.1163      1854.3233      3452.3188      6603.9714     -8011.7138     -75.334754     -2293.5828      7041.9824     -4863.318      -428.65048      74892.517      42.151478      42.151478      42.151478      0.97721591     153.51573     -65.473231     -436.42829    
     68500   68500          440.99963      373.45013      11452.333      11043.371      9226.7292      1816.6415      3480.4906      6627.533      -8063.9108     -79.164028     -2320.0029      7029.6239     -4857.9283     -427.53017      75088.768      42.188264      42.188264      42.188264      0.97466188    -685.87789      1526.4333      279.79497    
     69000   69000          437.71543      541.16987      11582.827      10988.556      9158.016       1830.5396      3484.1267      6580.3358     -8085.7265     -75.060993     -2248.6581      7033.4339     -4857.9112     -426.34994      75296.63       42.227157      42.227157      42.227157      0.97197125     409.39502      126.59484      1087.5198    
     69500   69500          443.46388      997.88866      12140.97       11051.672      9278.287       1773.3849      3470.3436      6522.4793     -7990.6099     -73.530783     -2320.5759      7029.4791     -4864.2004     -428.89697      74849.476      42.143402      42.143402      42.143402      0.97777785     826.74869      2550.6503     -383.733      
     70000   70000          441.08499     -837.71447      10021.711      10932.891      9228.515       1704.3765      3433.5037      6490.7066     -8011.2435     -72.431998     -2314.8946      7037.1996     -4858.4633     -430.43664      74581.74       42.093093      42.093093      42.093093      0.98128791    -445.28016     -1541.1491     -526.71415    
     70500   70500          441.30802      815.17036      11918.776      11040.377      9233.1813      1807.1954      3462.3278      6601.4502     -7997.229      -76.175383     -2343.8487      7026.8205     -4866.1499     -434.48442      73886.915      41.961968      41.961968      41.961968      0.99051584     1136.089       447.09637      862.32575    
     71000   71000          438.87188      1599.9162      12829.171      11092.897      9182.2117      1910.6857      3491.0017      6674.9812     -8032.0971     -77.898095     -2317.9021      7031.7928     -4859.1927     -431.41635      74412.371      42.061205      42.061205      42.061205      0.98352141     3879.0534      226.66435      694.03077    
     71500   71500          444.41297      18.870847      11119.143      11098.617      9298.1441      1800.4728      3545.8294      6626.7259     -8061.9736     -75.726176     -2378.7068      7008.745      -4864.4209     -430.43146      74582.638      42.093262      42.093262      42.093262      0.98127609     393.85788      611.03387     -948.27922    
     72000   72000          438.31713      66.493299      11172.927      11100.779      9170.605       1930.1741      3553.2118      6623.5446     -8027.4744     -75.273587     -2285.3489      7005.8787     -4864.3641     -431.4882       74399.98       42.058871      42.058871      42.058871      0.98368521    -377.09689     -245.31209      821.88887    
     72500   72500          437.91133     -977.19535      9858.0369      10925.156      9162.1147      1763.0413      3523.1533      6492.9968     -8058.9925     -77.819903     -2265.7974      7014.9845     -4865.4835     -428.73224      74878.236      42.148799      42.148799      42.148799      0.97740229    -1799.0869     -1476.835       344.33584    
     73000   73000          436.51129      498.84398      11465.736      10923.878      9132.8228      1791.0554      3496.8527      6591.2562     -8060.3092     -81.253884     -2316.4106      7024.0621     -4863.1418     -431.01929      74480.921      42.074117      42.074117      42.074117      0.98261621    -329.85389     -542.86588      2369.2517    
     73500   73500          440.95312      1787.9096      12944.111      10983.866      9225.7559      1758.11        3427.5214      6616.942      -8128.0721     -75.950277     -2240.6388      7019.4259     -4861.1183     -427.02446      75177.693      42.204912      42.204912      42.204912      0.97350899     1482.6665      1213.7506      2667.3115    
     74000   74000          446.86715      64.47985       11363.723      11293.147      9349.4911      1943.6556      3656.5959      6579.6623     -8091.4359     -73.897741     -2290.0706      7026.0398     -4863.2382     -427.74207      75051.569      42.181297      42.181297      42.181297      0.97514496    -365.30576      1954.4081     -1395.6628    
     74500   74500          450.7167       899.84558      12177.942      11197.399      9430.0327      1767.3666      3474.9441      6635.4957     -8091.9678     -76.224946     -2366.4029      7048.994      -4857.4715     -429.65417      74717.566      42.11863       42.11863       42.11863       0.97950407     2268.7788      1251.9497     -821.19174    
     75000   75000          438.38928      781.39799      11867.367      11020.1        9172.1146      1847.9858      3474.6074      6471.0021     -7953.6622     -73.531069     -2251.8815      7039.0816     -4857.6305     -431.78735      74348.435      42.049155      42.049155      42.049155      0.98436718     744.80672      247.12254      1352.2647    
     75500   75500          441.91303      772.38825      11911.492      11075.192      9245.8396      1829.3526      3539.8631      6454.3432     -7975.548      -72.205435     -2293.441       7036.4308     -4860.0901     -432.40555      74242.141      42.029107      42.029107      42.029107      0.98577653     139.23081      547.94519      1629.9888    
     76000   76000          444.11568      221.23089      11149.702      10908.725      9291.924       1616.8007      3423.3267      6432.7405     -8064.2058     -76.559357     -2276.4691      7043.1322     -4865.1645     -429.82108      74688.551      42.113178      42.113178      42.113178      0.97988458     987.83018      1132.0894     -1456.2269    
     76500   76500          444.4186      -388.83459      10618.014      11041.588      9298.2617      1743.3265      3512.5555      6611.3764     -8083.1411     -79.253413     -2399.3626      7039.3169     -4858.1652     -429.78626      74694.601      42.114315      42.114315      42.114315      0.97980521    -2394.4124     -580.24517      1808.1538    
     77000   77000          442.54172      123.14692      11198.697      11065.032      9258.9931      1806.0388      3482.2497      6640.6086     -8089.8664     -75.460832     -2333.8025      7038.0519     -4855.7416     -431.34351      74424.936      42.063573      42.063573      42.063573      0.98335535     831.60269      465.55589     -927.71781    
     77500   77500          446.26515     -90.804496      11003.158      11102.239      9336.8958      1765.3434      3432.4648      6705.9773     -8059.5444     -76.318426     -2401.6595      7021.3775     -4856.9539     -429.07675      74818.115      42.137515      42.137515      42.137515      0.97818769    -1320.1776     -330.92414      1378.6882    
     78000   78000          442.20273      1297.8917      12437.209      11023.719      9251.9007      1771.8183      3370.8705      6762.2902     -8109.1301     -81.453972     -2347.4191      7035.8027     -4859.142      -429.896        74675.535      42.110731      42.110731      42.110731      0.98005538     541.44452      1241.5217      2110.7089    
     78500   78500          438.12245     -333.75701      10498.765      10862.339      9166.5319      1695.807       3453.2186      6581.9055     -8090.6557     -75.049308     -2332.3974      7019.2395     -4860.4542     -429.78887      74694.149      42.11423       42.11423       42.11423       0.97981115    -1129.6093      564.30598     -435.96768    
     79000   79000          437.32689      835.36265      11774.469      10868.53       9149.8869      1718.6436      3437.3792      6610.9205     -8082.8895     -74.696025     -2352.4088      7040.6551     -4860.3168     -431.71206      74361.401      42.0516        42.0516        42.0516        0.98419554     1076.5255     -99.788237      1529.3507    
     79500   79500          437.66464     -740.73714      10363.419      11169.723      9156.9535      2012.7691      3597.7031      6666.8786     -8029.7603     -80.579668     -2307.4993      7021.8105     -4855.7838     -430.11345      74637.781      42.103633      42.103633      42.103633      0.98055112    -2027.6825     -45.989848     -148.53904    
     80000   80000          446.91388     -1078.1608      10161.538      11343.342      9350.4687      1992.8729      3592.3226      6782.2937     -8069.6446     -72.971485     -2413.8921      7029.1949     -4854.4301     -427.12569      75159.876      42.201577      42.201577      42.201577      0.97373976    -1924.0354     -745.58754     -564.85954    
     80500   80500          440.67529     -885.34845      10129.368      11101.256      9219.9432      1881.3129      3505.8863      6646.4529     -8091.8047     -77.480099     -2292.6358      7043.9935     -4853.0992     -426.49656      75270.745      42.222318      42.222318      42.222318      0.9723055     -1214.1117     -754.40027     -687.53339    
     81000   81000          439.19841     -756.97568      10121.246      10947.58       9189.0433      1758.5367      3402.4139      6614.696      -8051.4708     -74.230247     -2304.622       7028.5929     -4856.843      -428.88817      74851.012      42.14369       42.14369       42.14369       0.97775779     494.38563     -1791.8895     -973.42315    
     81500   81500          435.86438      98.536671      10968.244      10861.481      9119.2878      1742.1935      3514.4066      6598.7635     -8081.9529     -75.410352     -2373.031       7019.7094     -4860.2917     -432.11345      74292.326      42.038575      42.038575      42.038575      0.98511062     1099.3767      190.1481      -993.91481    
     82000   82000          442.59015      414.90514      11429.11       10981.397      9260.0063      1721.3909      3563.9913      6523.8952     -8054.0001     -73.97228      -2405.9671      7030.2931     -4862.8493     -433.87713      73990.334      41.981537      41.981537      41.981537      0.98913136    -577.99656      889.92651      932.78548    
     82500   82500          445.03586     -1192.6662      9889.1186      11183.564      9311.1763      1872.3875      3547.8727      6588.3375     -7982.9289     -72.62833      -2391.7284      7042.3557     -4858.8927     -431.37289      74419.868      42.062618      42.062618      42.062618      0.98342233    -1053.0716     -515.40528     -2009.5217    
     83000   83000          442.89386      985.17227      12256.133      11188.366      9266.3607      1922.0049      3511.0414      6723.425      -8050.2961     -74.328688     -2351.7735      7024.2369     -4860.3002     -431.96939      74317.102      42.043248      42.043248      42.043248      0.9847822      865.01276      1642.0224      448.48164    
     83500   83500          446.039       -238.79227      10783.868      11044.824      9332.1644      1712.6595      3417.8138      6679.6893     -8067.9762     -75.940486     -2416.4197      7032.5076     -4857.0148     -428.42054      74932.713      42.159018      42.159018      42.159018      0.97669171    -591.30077      46.548151     -171.6242     
     84000   84000          431.76993      36.91416       10874.38       10834.324      9033.6225      1800.7011      3543.0985      6526.8636     -7979.3761     -72.090581     -2383.1072      7021.6679     -4856.3549     -431.4568       74405.394      42.059891      42.059891      42.059891      0.98361362    -1957.3848     -21.055877      2089.1832    
     84500   84500          438.7757      -1577.0369      9303.2489      11029.956      9180.1994      1849.7565      3539.9214      6675.4719     -8142.2393     -78.71226      -2312.1491      7028.4643     -4861.0003     -427.60312      75075.958      42.185865      42.185865      42.185865      0.97482818    -1106.8772     -2906.5732     -717.66028    
     85000   85000          444.68213      1507.9802      12949.6        11291.989      9303.7754      1988.214       3510.8436      6549.9891     -7956.8489     -75.776498     -2222.3387      7044.8672     -4862.5217     -425.92256      75372.184      42.241276      42.241276      42.241276      0.97099694     2086.5128      2139.3748      298.05291    
     85500   85500          439.37143      921.64402      11941.202      10933.397      9192.6634      1740.734       3457.2626      6453.89       -8020.7981     -76.393721     -2240.0131      7031.0909     -4864.3045     -428.15867      74978.544      42.167611      42.167611      42.167611      0.97609471     1872.7128      473.54068      418.67858    
     86000   86000          439.17065      119.70097      11150.004      11018.549      9188.4626      1830.0864      3447.1239      6720.2295     -8135.0603     -74.543102     -2293.5134      7030.7532     -4864.9034     -426.32118      75301.71       42.228107      42.228107      42.228107      0.97190568    -375.14834      357.67074      376.58052    
     86500   86500          439.71017     -483.48897      10491.454      11024.638      9199.7505      1824.8877      3481.9062      6645.3227     -8095.7016     -76.929585     -2296.3619      7025.5945     -4858.9427     -424.5479       75616.235      42.286819      42.286819      42.286819      0.96786305    -788.73973      126.25697     -787.98415    
     87000   87000          447.26081     -740.05223      10467.242      11279.771      9357.7275      1922.044       3512.0921      6718.9735     -8128.4456     -72.189129     -2276.0807      7032.065      -4864.3712     -426.42313      75283.706      42.224741      42.224741      42.224741      0.97213811     1173.9136     -1332.372      -2061.6983    
     87500   87500          437.19735     -778.63691      10226.892      11081.284      9147.1766      1934.1071      3480.3056      6672.5086     -8050.7174     -76.474497     -2283.3578      7045.5775     -4853.7349     -426.67318      75239.586      42.216491      42.216491      42.216491      0.97270817    -411.28805      286.89478     -2211.5175    
     88000   88000          439.23146     -301.58928      10614.371      10941.632      9189.735       1751.8966      3454.3477      6544.4641     -8017.5873     -73.486302     -2338.3788      7041.919      -4859.3816     -431.45981      74404.877      42.059793      42.059793      42.059793      0.98362047    -45.299016      411.32657     -1270.7954    
     88500   88500          443.70628      1409.7283      12589.021      11045.37       9283.3585      1762.0119      3495.2871      6455.3512     -8040.3369     -78.163556     -2252.9355      7040.7073     -4857.8978     -427.56699      75082.302      42.187053      42.187053      42.187053      0.97474582     348.51033      725.59958      3155.075     
     89000   89000          441.23265     -914.8157       10101.421      11103.002      9231.6044      1871.3972      3532.043       6608.2405     -8069.6909     -76.889386     -2272.1506      7016.149      -4866.3044     -427.62703      75071.759      42.185079      42.185079      42.185079      0.97488271    -428.79125     -758.91838     -1556.7375    
     89500   89500          432.15337     -509.77502      10420.209      10979.504      9041.6449      1937.8592      3529.5726      6641.8273     -8063.1353     -74.617151     -2253.9303      7017.6816     -4859.5394     -426.73173      75229.264      42.21456       42.21456       42.21456       0.97284163    -454.7322      -582.09862     -492.49425    
     90000   90000          446.08923     -1392.9159      9763.6246      11308.296      9333.2154      1975.0804      3578.9059      6731.2037     -8111.024      -77.739032     -2325.5763      7036.6693     -4857.3591     -422.18859      76038.799      42.365443      42.365443      42.365443      0.96248443    -2549.85       -403.05273     -1225.845     
     90500   90500          446.6027       2325.665       13733.563      11180.471      9343.9583      1836.5128      3525.4592      6578.992      -8117.7222     -74.874614     -2251.481       7039.5534     -4863.414      -426.47968      75273.724      42.222875      42.222875      42.222875      0.97226702     3085.5486      1320.4548      2570.9916    
     91000   91000          436.72182      1880.0343      13043.566      10994.161      9137.2274      1856.934       3414.6089      6690.215      -8057.9221     -79.871969     -2306.4407      7052.7153     -4856.3704     -429.49265      74745.664      42.123909      42.123909      42.123909      0.97913585     2327.3863      1345.8309      1966.8856    
[...]
   2226000   2226000        99.561876     -301.0879      -5228.4993     -4943.7629      2083.064      -7026.827       788.25767      2838.1803     -8958.2871     -22.745166     -3669.7254      6920.9946     -4923.5019     -495.07152      64844.597      40.175189      40.175189      40.175189      1.1286393      1169.3133     -1543.3601     -529.21696    
   2226500   2226500        99.606655     -83.398564     -4979.4132     -4900.3757      2084.0009     -6984.3766      808.09927      2888.1683     -8969.4535     -24.121375     -3679.5426      6918.2201     -4925.7469     -494.01861      64982.802      40.203711      40.203711      40.203711      1.1262389      73.869106     -79.514004     -244.5508     
   2227000   2227000        99.732534     -720.59228     -5593.6423     -4909.475       2086.6346     -6996.1096      804.07325      2837.9495     -8961.7223     -22.502642     -3655.8613      6926.4025     -4924.4486     -493.11125      65102.376      40.228355      40.228355      40.228355      1.1241703      167.31131     -1933.7149     -395.3733     
   2227500   2227500        98.977113      463.87864     -4512.1558     -4951.4594      2070.8294     -7022.2888      763.9286       2921.4006     -9005.0744     -24.063155     -3671.4789      6917.3313     -4924.3329     -494.37583      64935.848      40.194026      40.194026      40.194026      1.1270533      218.61608      439.62532      733.39453    
   2228000   2228000        99.128341     -398.13492     -5336.8424     -4959.1972      2073.9935     -7033.1906      780.25599      2856.705      -8980.19       -23.384754     -3669.0567      6927.441      -4924.9612     -493.58728      65039.589      40.215419      40.215419      40.215419      1.1252556     -13.545804     -383.62667     -797.2323     
   2228500   2228500        99.836252      439.39217     -4479.9505     -4896.3819      2088.8046     -6985.1865      786.61742      2864.9657     -8964.5102     -22.977465     -3645.4171      6922.2262     -4926.0911     -493.99937      64985.333      40.204233      40.204233      40.204233      1.126195      -308.24849      1317.0861      309.33895    
   2229000   2229000        101.92241     -114.86144     -4978.1091     -4869.1493      2132.4519     -7001.6012      803.42725      2851.6974     -8978.5968     -23.579047     -3647.6104      6918.2851     -4925.2248     -493.54366      65045.337      40.216603      40.216603      40.216603      1.1251561      1028.9645     -389.09641     -984.45241    
   2229500   2229500        100.58136     -406.17783     -5292.0628     -4907.0206      2104.3941     -7011.4146      805.16523      2854.4674     -8971.1459     -23.814993     -3672.6671      6919.7903     -4923.2095     -493.88465      65000.428      40.207346      40.207346      40.207346      1.1259335      357.82897     -858.23241     -718.13004    
   2230000   2230000        100.44788      558.03297     -4353.158      -4881.9833      2101.6013     -6983.5845      812.80117      2816.4088     -8932.0543     -23.930604     -3660.0445      6928.7172     -4925.4822     -494.04364      64979.51       40.203032      40.203032      40.203032      1.126296       1507.1262      500.54418     -333.57149    
   2230500   2230500        101.3107       145.77144     -4726.3599     -4864.4609      2119.6535     -6984.1144      807.48246      2892.9481     -8984.6491     -22.314397     -3673.9994      6920.5857     -4924.1678     -494.18928      64960.36       40.199083      40.199083      40.199083      1.126628       641.86386      230.85561     -435.40515    
   2231000   2231000        100.77858     -83.364846     -4987.6642     -4908.7121      2108.5203     -7017.2324      778.10762      2888.6612     -8976.0343     -23.741275     -3675.6758      6916.9218     -4925.4717     -494.35314      64938.828      40.19464       40.19464       40.19464       1.1270016     -320.33238     -156.71902      226.95686    
   2231500   2231500        99.936029      560.63779     -4385.4524     -4917.7829      2090.8922     -7008.6751      810.69629      2874.7186     -9003.4759     -23.518624     -3664.8376      6923.3891     -4925.6469     -493.08137      65106.32       40.229168      40.229168      40.229168      1.1241022      338.33202      1185.2089      158.37245    
   2232000   2232000        99.486432     -470.61431     -5364.9361     -4919.418       2081.4855     -7000.9035      800.1857       2882.9385     -9002.0915     -22.97915      -3653.6498      6920.0986     -4925.4058     -494.55812      64911.913      40.189087      40.189087      40.189087      1.1274688      221.51598     -626.59549     -1006.7634    
   2232500   2232500        100.02384     -32.462137     -4905.8577     -4875.1578      2092.7294     -6967.8872      818.7066       2876.5096     -8983.0859     -24.082711     -3649.1891      6919.2516     -4925.9971     -495.05989      64846.122      40.175504      40.175504      40.175504      1.1286127     -168.17198      861.16197     -790.3764     
   2233000   2233000        99.827994      248.02783     -4623.7088     -4858.869       2088.6318     -6947.5008      813.09468      2912.8219     -8987.2166     -23.404336     -3652.6275      6915.3103     -4925.4792     -493.80365      65011.091      40.209544      40.209544      40.209544      1.1257488      118.23174      761.03769     -135.18595    
   2233500   2233500        100.81204      854.87058     -4118.5023     -4927.4623      2109.2204     -7036.6827      782.32739      2860.0293     -8959.3405     -22.973332     -3691.4562      6920.2705     -4925.5398     -494.75591      64885.963      40.18373       40.18373       40.18373       1.1279198      1475.6487      1086.7951      2.1679091    
   2234000   2234000        100.63053     -452.74771     -5311.6158     -4883.2022      2105.4226     -6988.6248      812.43022      2879.771      -8978.9495     -24.009872     -3669.248       6917.3907     -4926.0094     -494.77833      64883.022      40.183123      40.183123      40.183123      1.1279709     -366.5351      -910.02923     -81.678804    
   2234500   2234500        100.70018     -513.32903     -5381.4352     -4894.7349      2106.8799     -7001.6148      793.90008      2898.883      -8988.9272     -24.133433     -3676.5916      6920.3626     -4925.1082     -493.80091      65011.451      40.209618      40.209618      40.209618      1.1257426      122.28396     -89.639383     -1572.6317    
   2235000   2235000        99.851711      354.99634     -4549.974      -4886.9102      2089.128      -6976.0382      802.66808      2914.2731     -9014.3973     -24.867223     -3653.4944      6923.6797     -4923.9002     -493.28045      65080.045      40.223755      40.223755      40.223755      1.1245561      1238.208      -153.92497     -19.294027    
   2235500   2235500        101.15588     -203.14206     -5087.4279     -4894.2561      2116.4142     -7010.6703      803.64234      2865.6982     -8977.0449     -23.230687     -3678.2258      6923.735      -4925.2444     -492.34989      65203.048      40.249081      40.249081      40.249081      1.1224346      352.36033     -984.51904      22.732547    
   2236000   2236000        99.385159     -582.30235     -5467.6388     -4916.7662      2079.3667     -6996.1329      799.49812      2891.1871     -8993.75       -24.46649      -3672.4837      6927.4518     -4923.5698     -494.89721      64867.438      40.179906      40.179906      40.179906      1.1282419     -614.07089     -697.37719     -435.45897    
   2236500   2236500        99.411537     -1063.5381     -5906.1831     -4898.3669      2079.9186     -6978.2855      798.61646      2901.5061     -9001.4112     -23.990992     -3657.264       6928.5617     -4924.3036     -494.07098      64975.914      40.202291      40.202291      40.202291      1.1263583     -24.067959     -1822.7552     -1343.791     
   2237000   2237000        100.28039      309.47147     -4570.4094     -4864.2692      2098.0969     -6962.3661      814.29422      2868.6276     -8952.8465     -23.66114      -3663.1366      6918.8253     -4924.469      -493.05814      65109.388      40.2298        40.2298        40.2298        1.1240493      261.9596       1027.1439     -360.68908    
   2237500   2237500        97.546401     -276.26771     -5235.8191     -4973.8958      2040.8956     -7014.7914      798.59628      2901.6022     -9011.3444     -22.447953     -3674.589       6920.3731     -4926.9816     -493.82559      65008.201      40.208949      40.208949      40.208949      1.1257989      592.13351     -1408.1481     -12.788597    
   2238000   2238000        101.50279      88.245808     -4794.1486     -4877.8577      2123.6723     -7001.53        814.93317      2913.3785     -9031.6769     -25.380678     -3669.6785      6921.0628     -4924.1684     -493.55878      65043.345      40.216193      40.216193      40.216193      1.1251906      729.64614     -903.73492      438.8262     
   2238500   2238500        100.74949      789.8816      -4138.8839     -4886.3542      2107.9115     -6994.2658      789.36828      2894.7189     -8982.3491     -24.215802     -3662.1325      6916.3632     -4926.0188     -494.74982      64886.761      40.183895      40.183895      40.183895      1.1279059      2471.5326      361.14178     -463.02957    
   2239000   2239000        96.986547      138.90816     -4865.3799     -4997.1852      2029.1822     -7026.3673      776.45907      2893.435      -8980.3366     -22.935329     -3678.309       6912.6438     -4927.3243     -493.41544      65062.24       40.220087      40.220087      40.220087      1.1248638      1632.2897      29.101917     -1244.6671    
   2239500   2239500        99.745053     -140.24916     -5007.595      -4874.4656      2086.8965     -6961.3621      820.95984      2873.6407     -8973.8361     -24.007298     -3656.5376      6922.5481     -4924.1298     -493.2239       65087.506      40.225293      40.225293      40.225293      1.1244272      32.923127     -1319.5706      865.9        
   2240000   2240000        100.36326      391.48134     -4531.0143     -4902.2906      2099.8308     -7002.1214      784.48112      2833.9773     -8925.1947     -23.099518     -3672.6574      6925.4681     -4925.0963     -493.66403      65029.477      40.213335      40.213335      40.213335      1.1254305      229.75525      20.075557      924.6132     
   2240500   2240500        100.25341      493.39745     -4437.3504     -4905.0877      2097.5325     -7002.6202      789.48358      2890.62       -8991.3049     -24.491842     -3662.4246      6920.4404     -4924.9429     -493.86981      65002.381      40.207749      40.207749      40.207749      1.1258997      1076.686       838.19876     -434.69243    
   2241000   2241000        99.909115      361.18059     -4579.141      -4921.1846      2090.3291     -7011.5137      812.1564       2878.0648     -9010.1268     -23.214691     -3662.0911      6917.8354     -4924.1377     -494.37951      64935.365      40.193926      40.193926      40.193926      1.1270617      442.24669      314.25238      327.04272    
   2241500   2241500        98.996549     -32.802061     -4940.6882     -4909.5298      2071.2361     -6980.7659      829.81694      2873.0676     -8992.9516     -24.612789     -3666.0729      6924.8718     -4924.885      -492.88326      65132.489      40.234557      40.234557      40.234557      1.1236506      640.38631     -664.13811     -74.654387    
   2242000   2242000        99.762386      697.43805     -4263.8788     -4923.4536      2087.2591     -7010.7128      803.60613      2861.8757     -8959.4955     -22.920125     -3694.0741      6925.828      -4925.5329     -495.06154      64845.905      40.175459      40.175459      40.175459      1.1286165      311.1944       355.45887      1425.6609    
   2242500   2242500        99.639082     -498.36483     -5359.9408     -4886.6251      2084.6793     -6971.3044      819.77971      2889.0331     -8986.068      -23.900063     -3664.7948      6920.3011     -4925.6554     -492.96275      65121.987      40.232394      40.232394      40.232394      1.1238318     -459.29717     -395.56868     -640.22862    
   2243000   2243000        99.444381      532.70278     -4391.0817     -4895.2617      2080.6057     -6975.8674      806.2811       2910.4907     -8999.4528     -24.970307     -3659.5655      6916.7216     -4925.3722     -494.67164      64897.016      40.186012      40.186012      40.186012      1.1277277      1393.1213     -492.63985      697.62693    
   2243500   2243500        97.888684     -124.51264     -5078.5329     -4960.6667      2048.057      -7008.7237      794.82705      2848.7307     -8953.3925     -23.422182     -3671.4806      6920.3965     -4924.3827     -494.5858       64908.279      40.188337      40.188337      40.188337      1.127532      -1.034133      -92.379354     -280.12443    
   2244000   2244000        98.876118      501.82319     -4469.3122     -4944.7408      2068.7164     -7013.4571      803.561        2831.8862     -8955.1253     -24.035154     -3665.7321      6921.5385     -4925.5503     -494.17761      64961.894      40.199399      40.199399      40.199399      1.1266014      453.43819      547.00142      505.02996    
   2244500   2244500        99.993199     -193.45903     -5084.8537     -4901.6127      2092.0883     -6993.701       797.23292      2861.8919     -8969.2151     -22.866367     -3653.1746      6917.9307     -4925.5004     -494.29258      64946.784      40.196282      40.196282      40.196282      1.1268635      551.98331     -336.94404     -795.41635    
   2245000   2245000        101.18937      414.54975     -4475.8537     -4869.3245      2117.1149     -6986.4394      816.53261      2861.838      -8961.639      -23.189306     -3676.0286      6921.2773     -4925.2304     -493.26669      65081.86       40.224129      40.224129      40.224129      1.1245247      1267.5007     -29.703337      5.8518335    
   2245500   2245500        99.69554      -203.41998     -5100.7017     -4907.843       2085.8606     -6993.7036      805.7851       2851.5148     -8957.7033     -24.742165     -3670.0532      6925.808      -4924.3129     -493.82371      65008.449      40.209         40.209         40.209         1.1257946      883.89176     -1248.2262     -245.9255     
   2246000   2246000        100.34766      288.07886     -4671.7021     -4945.0218      2099.5043     -7044.5261      774.83341      2858.1584     -8983.3188     -23.118113     -3671.2003      6924.6587     -4924.5394     -493.46708      65055.431      40.218684      40.218684      40.218684      1.1249816      1102.305      -36.728134     -201.34024    
   2246500   2246500        100.74806      248.07133     -4689.9799     -4924.9663      2107.8817     -7032.848       788.5381       2798.2691     -8933.7111     -22.310641     -3662.7302      6922.5694     -4923.4726     -494.25564      64951.639      40.197283      40.197283      40.197283      1.1267793      746.24026      101.00701     -103.03327    
   2247000   2247000        99.58484      -644.05879     -5487.5446     -4877.2031      2083.5445     -6960.7475      815.80047      2877.241      -8938.4669     -24.180884     -3688.6546      6923.8773     -4926.3639     -494.04921      64978.777      40.202881      40.202881      40.202881      1.1263087      334.78337     -1377.3078     -889.65192    
   2247500   2247500        99.3064       -562.71525     -5436.2124     -4902.7413      2077.7189     -6980.4602      802.35162      2897.3912     -8976.9713     -22.266091     -3674.6991      6919.2939     -4925.5605     -493.85041      65004.934      40.208275      40.208275      40.208275      1.1258554     -225.72447     -254.17215     -1208.2491    
   2248000   2248000        99.489901     -432.56322     -5322.8976     -4912.7396      2081.5581     -6994.2977      811.69605      2858.2738     -8974.673      -22.184132     -3672.3291      6929.2979     -4924.3793     -493.76011      65016.823      40.210726      40.210726      40.210726      1.1256496     -336.34278     -532.54211     -428.80477    
   2248500   2248500        97.799031      53.593255     -4894.7159     -4945.5322      2046.1812     -6991.7134      798.41728      2914.0357     -8991.5215     -24.866405     -3681.7826      6917.9706     -4923.9665     -493.7708       65015.415      40.210436      40.210436      40.210436      1.125674       174.61272     -291.37328      277.54032    
   2249000   2249000        99.668628      417.58744     -4513.3206     -4909.5473      2085.2975     -6994.8448      792.93023      2886.7281     -8979.7202     -22.462664     -3665.1879      6917.198      -4924.3303     -493.42512      65060.963      40.219824      40.219824      40.219824      1.1248859      492.76107      204.96605      555.03521    
   2249500   2249500        99.770186     -563.01495     -5409.5942     -4875.2679      2087.4223     -6962.6902      816.64324      2926.265      -8993.3174     -25.052283     -3679.3614      6916.3932     -4924.2606     -493.32266      65074.477      40.222608      40.222608      40.222608      1.1246523     -551.27222     -482.71616     -655.05647    
   2250000   2250000        102.06224      247.13387     -4649.8699     -4884.2015      2135.3773     -7019.5788      785.69579      2847.4448     -8952.4351     -23.008142     -3673.2469      6920.2722     -4924.3013     -493.76353      65016.372      40.210633      40.210633      40.210633      1.1256574     -425.07044      269.49706      896.97499    
Loop time of 233.472 on 1 procs for 125000 steps with 7020 atoms

Performance: 46.258 ns/day, 0.519 hours/ns, 535.396 timesteps/s, 3.758 Matom-step/s
100.0% CPU use with 1 MPI tasks x 1 OpenMP threads

MPI task timing breakdown:
Section |  min time  |  avg time  |  max time  |%varavg| %total
---------------------------------------------------------------
Pair    | 32.782     | 32.782     | 32.782     |   0.0 | 14.04
Bond    | 27.786     | 27.786     | 27.786     |   0.0 | 11.90
Kspace  | 118.78     | 118.78     | 118.78     |   0.0 | 50.87
Neigh   | 7.8767     | 7.8767     | 7.8767     |   0.0 |  3.37
Comm    | 1.724      | 1.724      | 1.724      |   0.0 |  0.74
Output  | 0.024723   | 0.024723   | 0.024723   |   0.0 |  0.01
Modify  | 39.209     | 39.209     | 39.209     |   0.0 | 16.79
Other   |            | 5.295      |            |       |  2.27

Nlocal:           7020 ave        7020 max        7020 min
Histogram: 1 0 0 0 0 0 0 0 0 0
Nghost:          20367 ave       20367 max       20367 min
Histogram: 1 0 0 0 0 0 0 0 0 0
Neighs:              0 ave           0 max           0 min
Histogram: 1 0 0 0 0 0 0 0 0 0
FullNghs:   4.8191e+06 ave  4.8191e+06 max  4.8191e+06 min
Histogram: 1 0 0 0 0 0 0 0 0 0

Total # of neighbors = 4819102
Ave neighs/atom = 686.48177
Ave special neighs/atom = 5.7008547
Neighbor list builds = 1590
Dangerous builds = 0
  unfix npt_tg
  shell echo '{"stage":"T${temps}","status":"done"}' >> /home/alexzhao/PolyJarvis/data/PEG3/lammps/thermal/tg_sweep_r160/tg_progress.jsonl
  print "STAGE COMPLETE: Tg step T=${temps}K P=1.0atm steps=125000"
STAGE COMPLETE: Tg step T=100K P=1.0atm steps=125000
  next temps
  jump SELF TEMP_LOOP

write_data tg_step_out.data
System init for write_data ...
PPPM Kokkos initialization ...
  using 12-bit tables for long-range coulomb
  G vector (1/distance) = 0.30473019
  grid = 30 30 30
  stencil order = 5
  estimated absolute RMS force accuracy = 0.00028719207
  estimated relative force accuracy = 8.6487039e-07
  using double precision cuFFT
  3d grid and FFT values/proc = 50653 27000
Generated 10 of 10 mixed pair_coeff terms from sixthpower/sixthpower mixing rule
Total wall time: 1:11:47
