LAMMPS data file via write_data, version 22 Jul 2025, timestep = 500000, units = real

2020 atoms
6 atom types
2010 bonds
7 bond types
3800 angles
12 angle types
4770 dihedrals
14 dihedral types
2400 impropers
11 improper types

0.6042135959394646 29.542270504063275 xlo xhi
0.6042135959394646 29.542270504063275 ylo yhi
0.6042135959394646 29.542270504063275 zlo zhi

Masses

1 12.01115
2 12.01115
3 1.00797
4 1.00797
5 32.064
6 32.064

Pair Coeffs # lj/class2/coul/long/gpu

1 0.054 4.01
2 0.054 4.01
3 0.02 2.995
4 0.02 2.995
5 0.071 4.027
6 0.071 4.027

Bond Coeffs # class2

1 1.53 299.67 -501.77 679.81
2 1.101 345 -691.89 844.6
3 1.823 225.277 -327.706 488.972
4 1.101 345 -691.89 844.6
5 1.823 225.277 -327.706 488.972
6 1.823 225.277 -327.706 488.972
7 1.3261 275.112 -531.318 562.963

Angle Coeffs # class2

1 112.67 39.516 -7.443 -9.5583
2 110.77 41.453 -10.604 5.129
3 112.564 47.0276 -10.679 -10.1687
4 112.564 47.0276 -10.679 -10.1687
5 97.5 57.6938 -5.0559 -11.8206
6 110.77 41.453 -10.604 5.129
7 112.564 47.0276 -10.679 -10.1687
8 96.8479 56.7336 14.2713 0
9 107.66 39.641 -12.921 -2.4318
10 107.852 51.4949 -13.527 7.026
11 107.852 51.4949 -13.527 7.026
12 107.852 51.4949 -13.527 7.026

BondBond Coeffs

1 0 1.53 1.53
2 3.3872 1.53 1.101
3 10.9186 1.53 1.823
4 10.9186 1.53 1.823
5 -22.3144 1.823 1.823
6 3.3872 1.53 1.101
7 10.9186 1.53 1.823
8 -0.57 1.823 1.3261
9 5.3316 1.101 1.101
10 7.0463 1.101 1.823
11 7.0463 1.101 1.823
12 7.0463 1.101 1.823

BondAngle Coeffs

1 8.016 8.016 1.53 1.53
2 20.754 11.421 1.53 1.101
3 -3.5621 22.3865 1.53 1.823
4 -3.5621 22.3865 1.53 1.823
5 -13.0015 -13.0015 1.823 1.823
6 20.754 11.421 1.53 1.101
7 -3.5621 22.3865 1.53 1.823
8 10.7325 5.1221 1.823 1.3261
9 18.103 18.103 1.101 1.101
10 9.3225 44.9874 1.101 1.823
11 9.3225 44.9874 1.101 1.823
12 9.3225 44.9874 1.101 1.823

Dihedral Coeffs # class2

1 0 0 0.0316 0 -0.1681 0
2 -0.7017 0 0.0201 0 0.104 0
3 -0.4871 0 -0.4514 0 -0.1428 0
4 -0.5073 0 0.0155 0 -0.0671 0
5 -0.3338 0 -0.0684 0 -0.1706 0
6 -0.5073 0 0.0155 0 -0.0671 0
7 -0.3338 0 -0.0684 0 -0.1706 0
8 -0.1432 0 0.0617 0 -0.1083 0
9 -0.2078 0 -0.106 0 -0.3595 0
10 -0.2078 0 -0.106 0 -0.3595 0
11 -0.2078 0 -0.106 0 -0.3595 0
12 -0.5374 0 -0.5091 0 -0.1361 0
13 -1.2002 0 -1.2999 0 -0.1626 0
14 -1.2002 0 -1.2999 0 -0.1626 0

AngleAngleTorsion Coeffs

1 -16.164 112.67 110.77
2 -26.71 112.67 112.564
3 -28.1728 112.564 96.8479
4 -32.8949 112.564 97.5
5 -26.49 97.5 107.852
6 -32.8949 112.564 97.5
7 -26.49 97.5 107.852
8 -12.564 110.77 110.77
9 -13.1026 110.77 112.564
10 -13.1026 110.77 112.564
11 -13.1026 110.77 112.564
12 -18.6334 107.852 96.8479
13 -13.9674 112.564 112.564
14 -13.9674 112.564 112.564

EndBondTorsion Coeffs

1 0.2486 0.2422 -0.0925 0.0814 0.0591 0.2219 1.53 1.101
2 -0.1586 -0.7244 -0.2608 -0.7991 -0.959 0.5855 1.53 1.823
3 0.1026 0.0936 -0.0404 -0.3008 0.0606 0.4501 1.53 1.3261
4 -0.2542 -0.7984 -0.6525 -0.3047 -0.0109 -0.3763 1.53 1.823
5 0.2592 -0.0166 0.1306 -0.41 0.0668 0.4187 1.823 1.101
6 -0.2542 -0.7984 -0.6525 -0.3047 -0.0109 -0.3763 1.53 1.823
7 0.2592 -0.0166 0.1306 -0.41 0.0668 0.4187 1.823 1.101
8 0.213 0.312 0.0777 0.213 0.312 0.0777 1.101 1.101
9 -0.1526 -0.371 0.1048 1.0661 0.3298 0.425 1.101 1.823
10 -0.1526 -0.371 0.1048 1.0661 0.3298 0.425 1.101 1.823
11 -0.1526 -0.371 0.1048 1.0661 0.3298 0.425 1.101 1.823
12 0.4376 0.2001 -1.0696 0.2902 0.0695 0.1726 1.101 1.3261
13 -0.3252 0.5008 0.5191 -0.3252 0.5008 0.5191 1.823 1.823
14 -0.3252 0.5008 0.5191 -0.3252 0.5008 0.5191 1.823 1.823

MiddleBondTorsion Coeffs

1 -14.879 -3.6581 -0.3138 1.53
2 -4.2593 -5.6468 -3.3835 1.53
3 0.502 -1.0204 -0.9177 1.823
4 -2.5172 -2.0107 -2.8547 1.823
5 -0.6955 -2.9427 -1.2372 1.823
6 -2.5172 -2.0107 -2.8547 1.823
7 -0.6955 -2.9427 -1.2372 1.823
8 -14.261 -0.5322 -0.4864 1.53
9 -5.7537 -2.0104 0.2813 1.53
10 -5.7537 -2.0104 0.2813 1.53
11 -5.7537 -2.0104 0.2813 1.53
12 -0.3729 0.5373 -0.7035 1.823
13 1.7001 -3.3479 -0.8067 1.53
14 1.7001 -3.3479 -0.8067 1.53

BondBond13 Coeffs

1 0 1.53 1.101
2 0 1.53 1.823
3 0 1.53 1.3261
4 0 1.53 1.823
5 0 1.823 1.101
6 0 1.53 1.823
7 0 1.823 1.101
8 0 1.101 1.101
9 0 1.101 1.823
10 0 1.101 1.823
11 0 1.101 1.823
12 0 1.101 1.3261
13 0 1.823 1.823
14 0 1.823 1.823

AngleTorsion Coeffs

1 -0.2454 0 -0.1136 0.3113 0.4516 -0.1988 112.67 110.77
2 -2.0927 -0.1498 -1.7848 1.1179 0.3638 0.9423 112.67 112.564
3 -0.6045 3.8941 0.8885 1.0193 -0.6016 0.2097 112.564 96.8479
4 5.1289 2.0927 -2.4004 -4.5489 0.0886 0.6237 112.564 97.5
5 -1.0888 -0.2 -0.0909 0.5962 3.3479 0.2265 97.5 107.852
6 5.1289 2.0927 -2.4004 -4.5489 0.0886 0.6237 112.564 97.5
7 -1.0888 -0.2 -0.0909 0.5962 3.3479 0.2265 97.5 107.852
8 -0.8085 0.5569 -0.2466 -0.8085 0.5569 -0.2466 110.77 110.77
9 -2.0382 0.2102 -0.9023 0.3322 -0.0519 -0.3553 110.77 112.564
10 -2.0382 0.2102 -0.9023 0.3322 -0.0519 -0.3553 110.77 112.564
11 -2.0382 0.2102 -0.9023 0.3322 -0.0519 -0.3553 110.77 112.564
12 -2.2533 2.6948 -0.1723 1.434 -0.1915 -0.2611 107.852 96.8479
13 -5.0565 -0.6355 0.6015 -5.0565 -0.6355 0.6015 112.564 112.564
14 -5.0565 -0.6355 0.6015 -5.0565 -0.6355 0.6015 112.564 112.564

Improper Coeffs # class2

1 0 0
2 0 0
3 0 0
4 0 0
5 0 0
6 0 0
7 0 0
8 0 0
9 0 0
10 0 0
11 0 0

AngleAngle Coeffs

1 0.2738 -0.4825 0.2738 110.77 110.77 107.66
2 2.7985 -3.0031 -0.0668 110.77 112.564 107.852
3 -0.3157 -0.3157 -0.3157 107.66 107.66 107.66
4 0.5086 0.5086 -0.064 107.66 107.852 107.852
5 -1.3199 -1.3199 0.1184 112.67 110.77 110.77
6 -0.2564 -0.2564 -0.8766 112.67 112.564 112.564
7 -0.2564 -0.2564 -0.8766 112.67 112.564 112.564
8 2.7985 -3.0031 -0.0668 110.77 112.564 107.852
9 2.7985 -3.0031 -0.0668 110.77 112.564 107.852
10 -0.0668 -3.0031 2.7985 112.564 110.77 107.852
11 -0.0668 -3.0031 2.7985 112.564 110.77 107.852

Atoms # full

1188 6 3 0.053 2.691866246701496 4.997415779824288 4.640522442214042 1 1 -1
1184 6 2 0.012 3.8870631828225175 4.49287508845255 2.9133930617805146 1 1 -1
1187 6 3 0.053 4.271406679861627 5.702073448629257 4.712279562081834 1 1 -1
1186 6 1 -0.159 3.4591914113119757 5.489200910725021 3.9816078889587616 1 1 -1
1185 6 3 0.053 2.966426609769786 4.110480652926291 2.419019920238777 1 1 -1
1189 6 3 0.053 3.0495701470170187 6.530832459502048 3.6498841151739736 1 1 -1
1182 6 3 0.053 4.11900851130199 2.708388285939671 4.363061865587101 1 1 -1
1181 6 1 -0.041 4.704406191605351 3.257599787769627 3.5918841074804764 1 1 -1
1183 6 3 0.053 5.680992967838636 3.6698821025657673 3.9138972962603615 1 1 -1
1793 9 3 0.053 1.1225438362705524 11.778799988249725 11.514760966081534 0 0 -1
1180 6 6 -0.13 4.888654460575272 1.9559654652884362 2.3326887858941445 1 1 -1
1154 6 2 0.012 10.397157015410336 0.7220098957685421 8.389981747554591 1 1 -1
1170 6 6 -0.13 7.915814256838945 2.1257717586891047 4.460417396525532 1 1 -1
1943 10 3 0.053 13.337429484482964 11.135608796991198 0.9010041449017764 0 0 1
145 1 3 0.053 1.8842721843689185 1.7655099487879293 5.79035435159712 0 1 0
269 2 3 0.053 11.986636859814727 0.8078106429645592 1.583613549221158 0 0 0
1168 6 3 0.053 10.092725925627535 3.210584016517344 3.2671662728706043 1 1 -1
1166 6 1 -0.159 10.366418328559513 2.1907501816485917 3.463395527013204 1 1 -1
1171 6 1 -0.041 7.3799333145529875 0.8730326576327908 3.3019516274117118 1 1 -1
1167 6 3 0.053 10.085096673825522 1.6294303486976378 2.5332212920599413 1 1 -1
1173 6 3 0.053 7.807640773958952 0.9873882107015495 2.2964177680172164 1 1 -1
479 3 3 0.053 1.0968064354219453 6.923830488257464 5.671555336352774 0 0 0
1926 10 3 0.053 7.326006755105883 5.660084928687186 2.176394961884934 0 0 1
1134 6 2 0.012 4.915578323484849 0.6440881747836879 10.31599343421759 1 1 -1
251 2 3 0.053 12.194200210508019 4.998707349832828 6.805767716850901 0 0 0
172 1 3 0.053 1.1742576630680335 7.385459530228909 14.712030955376997 0 1 0
1791 9 3 0.053 0.724468861177518 11.128203313662178 13.849076184160635 0 0 -1
1322 7 6 -0.13 10.14004040884233 8.20766836659781 14.81288330717633 0 0 1
1939 10 1 -0.041 11.13195733593442 11.00503130281862 0.6098146740520339 0 0 1
264 2 3 0.053 13.479735217098163 2.7105809194549737 2.255666369987332 0 0 0
263 2 1 -0.041 13.820929290767152 2.8774673035998495 1.2361323554909045 0 0 0
265 2 3 0.053 14.71266115334959 2.2727104238031144 0.9850086436914034 0 0 0
250 2 3 0.053 13.424833103435523 3.611468391595115 6.578986732460056 0 0 0
248 2 1 -0.159 13.259809540914045 4.657808565601687 6.9272181069513215 0 0 0
246 2 2 0.012 14.263959940711311 5.631878512799535 6.1715478993201085 0 0 0
262 2 6 -0.13 14.31319331212491 4.615596619684508 1.036057855610346 0 0 0
1209 6 3 0.053 5.321070105478648 12.947207486786244 1.3943511236256998 1 1 -1
1306 7 2 0.012 6.436184943021224 7.85171012139029 14.29899226880869 0 0 1
1190 6 6 -0.13 4.9924061909100095 5.19668273634825 1.6830488507530195 1 1 -1
1310 7 3 0.053 4.336994971298441 7.7464735259803845 14.978046012674826 0 0 1
476 3 3 0.053 2.1424617322901294 8.932643360299469 4.8561008689661485 0 0 0
475 3 1 -0.041 1.5707047751837102 8.906785574607365 5.811785693092633 0 0 0
467 3 3 0.053 4.103214450586153 11.356797582452161 5.851074297202774 0 0 0
1201 6 1 -0.041 4.239634787534575 10.440513206819105 2.207241280270906 1 1 -1
1200 6 6 -0.13 3.9452334693054216 8.622051965337837 2.2343773609047317 1 1 -1
1204 6 2 0.012 5.752546608698098 10.857313585658702 2.0884923157452944 1 1 -1
477 3 3 0.053 1.2351196956521835 9.901895985227295 6.121132754083653 0 0 0
1308 7 1 -0.159 5.225638807765367 7.128427935332788 14.802360869190265 0 0 1
1194 6 2 0.012 4.558056267099092 7.917049797943696 0.6652535104678452 1 1 -1
1205 6 3 0.053 6.1167812031082915 10.391264056952593 1.1248445865227241 1 1 -1
1311 7 3 0.053 4.840830544925291 6.217771177189947 14.32793259178879 0 0 1
1897 10 3 0.053 14.397552450443031 14.532811019464031 7.448650832184826 0 0 1
471 3 3 0.053 5.24791602425142 9.058615336145648 5.453250650276351 0 0 0
1093 6 3 0.053 4.124815556493065 3.1540847285914038 14.431447883198604 1 1 -1
187 1 3 0.053 1.1504626403718667 1.4802396677492258 13.249816070435369 0 1 0
1942 10 2 0.012 12.44102626323721 11.800969991554497 0.9471322775717333 0 0 1
1344 7 3 0.053 6.368605967360263 13.002622508557245 14.357385548628613 0 0 1
1203 6 3 0.053 3.7076425435033045 10.921098307068926 1.3758024753580034 1 1 -1
1924 10 1 -0.159 8.165180889998314 5.859156544087983 2.8959778710872683 0 0 1
1927 10 3 0.053 8.803124541755544 5.000429124030218 2.814753802275613 0 0 1
1925 10 3 0.053 7.841784644714379 5.846262861361263 3.9319034763883716 0 0 1
1921 10 3 0.053 9.154353346317563 7.335376273452303 4.817986008073723 0 0 1
1923 10 3 0.053 8.156857920365404 7.8460671325903855 2.338386773781015 0 0 1
1920 10 3 0.053 10.702599134748843 7.056126732452704 3.990773088342206 0 0 1
1914 10 1 -0.159 11.184650462862239 8.991371968936992 6.652847584732333 0 0 1
1919 10 1 -0.041 9.72407480893603 7.588637460982659 3.875596708436382 0 0 1
1917 10 3 0.053 12.094793985302113 9.56852987992293 6.471408432509231 0 0 1
1912 10 2 0.012 10.084839683286301 9.76761577428263 5.901841226883369 0 0 1
1918 10 6 -0.13 10.173104617880242 9.317732770294253 4.121437725640945 0 0 1
1909 10 1 -0.041 10.39621886650851 11.232776421134322 5.955549811102102 0 0 1
1911 10 3 0.053 11.109791363453542 11.475196254965446 5.203268037826734 0 0 1
1922 10 2 0.012 8.896679213954181 7.15899305390048 2.61832131871224 0 0 1
1915 10 3 0.053 11.2472040937043 7.921358547030194 6.442562750675498 0 0 1
1940 10 3 0.053 11.012095711980088 10.333357498394271 1.5023006584749479 0 0 1
1790 9 2 0.012 0.9924744589856584 12.215024852488627 13.691996678680812 0 0 -1
238 2 1 -0.159 14.981092748716758 9.720118892253566 5.00817718590738 0 0 0
252 2 6 -0.13 13.943501590911074 5.876331464897513 4.341202174367456 0 0 0
1945 10 3 0.053 12.649292488944175 11.223513688481857 3.025612773201032 0 0 1
240 2 3 0.053 14.156327594119533 9.058700292344112 4.558909415232277 0 0 0
239 2 3 0.053 14.55438914152198 10.724879820030758 4.832500883923513 0 0 0
1210 6 5 -0.2042 6.648590058445108 10.159025224232598 3.497422531592825 1 1 -1
1202 6 3 0.053 3.8944036482720463 10.953384848198748 3.185141353316351 1 1 -1
651 4 3 0.053 1.640006754290197 12.149758101332926 1.2455518817018616 1 0 1
462 3 3 0.053 3.8717953750493876 14.066222855122595 5.690786732270177 0 0 0
463 3 3 0.053 2.241027345020709 13.485793713029825 5.157252890868533 0 0 0
460 3 1 -0.159 2.787566301269612 14.055646993921926 5.919111054257477 0 0 0
166 1 1 -0.159 0.7376702835901942 8.719222887018832 10.35681655116711 0 1 0
1102 6 3 0.053 7.575191577437067 4.4556248894926345 15.017657324271623 1 1 -1
1212 6 4 0.1392 7.731836748102991 10.834216287693057 3.237142503810662 1 1 -1
1908 10 6 -0.13 8.97580384897927 12.310777523787209 5.805203460223954 0 0 1
1208 6 3 0.053 5.447197362760662 12.698776288259618 3.0895641101545905 1 1 -1
1139 6 3 0.053 3.2517560809254644 1.9497313442909285 10.004666763529698 1 1 -1
1206 6 1 -0.159 5.886048614500305 12.379889469927445 2.1385617158819294 1 1 -1
1207 6 3 0.053 6.9348721846287456 12.837269700683853 2.1734087774195943 1 1 -1
1944 10 1 -0.159 12.278513635013516 12.215546610170248 2.4999636326283694 0 0 1
1947 10 3 0.053 12.89398293320925 13.036281795032767 2.8135353199098168 0 0 1
1946 10 3 0.053 11.154191781572573 12.296263992209353 2.7724552750482725 0 0 1
174 1 2 0.012 1.5210519851899345 5.403454628829546 14.167103954163514 0 1 0
1951 10 3 0.053 11.178842223147845 14.237585069510532 1.2590200551376332 0 0 1
144 1 2 0.012 1.0568041800675712 1.9152622990324524 6.489694475984758 0 1 0
150 1 6 -0.13 1.3176417026722116 3.518141341448392 7.303240509556648 0 1 0
152 1 3 0.053 3.6716365160256212 3.64485522409606 6.526016876903637 0 1 0
157 1 3 0.053 5.214577445932548 5.637548139445907 6.9265887837448545 0 1 0
153 1 3 0.053 3.545140382107699 2.980575888735007 8.128731037052514 0 1 0
151 1 1 -0.041 3.1121241178057177 3.718210397886158 7.463246354953888 0 1 0
154 1 2 0.012 3.3612410467828444 5.12816545135973 8.010443235370298 0 1 0
160 1 6 -0.13 2.9119012415792414 5.18941385383803 9.785960663843792 0 1 0
155 1 3 0.053 2.7544417604244633 5.890176960486714 7.577246444109204 0 1 0
158 1 3 0.053 5.462607509572642 4.984965109077773 8.62553228341133 0 1 0
156 1 1 -0.159 4.820619237110846 5.559124452875465 7.967154117661209 0 1 0
159 1 3 0.053 4.820225411252517 6.599503861565006 8.386532552974295 0 1 0
1135 6 3 0.053 5.544395060278413 1.5769040943552843 10.46927881963495 1 1 -1
1169 6 3 0.053 11.47327123788118 2.2933051558628836 3.5748977644654905 1 1 -1
1164 6 2 0.012 9.598983904306133 1.6263356216588136 4.65735114675346 1 1 -1
1930 10 3 0.053 8.81522765981397 9.42044226677952 1.0994854850370046 0 0 1
1162 6 3 0.053 10.182070903518321 3.3099786899334163 5.849849750543258 1 1 -1
1161 6 1 -0.041 10.150246732571729 2.187702878987998 5.956114237313347 1 1 -1
1160 6 6 -0.13 9.2163692648258 1.8884558852069835 7.434843874382672 1 1 -1
1291 7 3 0.053 9.630231105236128 4.265705018100582 8.9817192971489 0 0 1
1288 7 1 -0.159 9.310407059740879 4.608012868982515 9.92710417034399 0 0 1
1290 7 3 0.053 8.280061372585635 4.401023921640513 9.986612387045321 0 0 1
1163 6 3 0.053 11.235564254571312 1.837921403672573 6.157926612486774 1 1 -1
1159 6 3 0.053 11.12976139617661 2.544683272375292 9.228659624317146 1 1 -1
1091 6 1 -0.041 5.14063383893295 3.2700863287584903 14.740203949288077 1 1 -1
1289 7 3 0.053 9.728106842446897 4.001443561832348 10.719792560519776 0 0 1
980 5 3 0.053 14.05301329430789 1.4672286048490686 7.913006002909353 0 2 0
1257 7 3 0.053 13.56620936668141 4.250965430544786 12.214722358424435 0 0 1
979 5 1 -0.041 14.838666914344834 0.9825501428943271 8.536069648224062 0 2 0
249 2 3 0.053 13.473879509554678 4.678290617694184 8.029654108437526 0 0 0
175 1 3 0.053 2.618911946581086 5.279724652590632 14.374373392439914 0 1 0
981 5 3 0.053 14.668792132889065 1.0940170770054345 9.624343372384011 0 2 0
1337 7 3 0.053 10.540967571410265 13.305729745716834 13.757826487471208 0 0 1
1336 7 2 0.012 10.08867185181958 12.348101982509716 13.432916223264337 0 0 1
1334 7 3 0.053 11.982598057082804 11.223695116144436 13.159114631607524 0 0 1
148 1 3 0.053 2.1480623415342146 0.6510705228395574 7.9894175136228185 0 1 0
161 1 1 -0.041 2.138599596446002 6.8179197887495935 9.766981864693127 0 1 0
470 3 1 -0.159 5.372877154827834 9.186509206638657 6.5606681463943355 0 0 0
472 3 3 0.053 6.209841763478319 9.883630838251378 6.786805834701323 0 0 0
473 3 3 0.053 5.5413998050319275 8.198213621942514 7.027151792055298 0 0 0
474 3 6 -0.13 2.7358225154354416 8.371511823490575 7.114004018360928 0 0 0
163 1 3 0.053 2.9702319435930375 7.522268282816124 9.566390253392452 0 1 0
465 3 1 -0.041 3.8129675343787692 11.170240127373884 6.872443142001047 0 0 0
466 3 3 0.053 4.660195086763648 11.672698682078186 7.396538955106729 0 0 0
468 3 2 0.012 4.079219615537667 9.678327384685062 7.245155586224175 0 0 0
164 1 2 0.012 1.3207138047628613 7.4085444730386625 10.936506813697429 0 1 0
469 3 3 0.053 4.271054789082504 9.784583280831272 8.31400710082369 0 0 0
1297 7 3 0.053 6.479976958500903 8.240467688840175 10.021318592976368 0 0 1
1301 7 3 0.053 6.248330824402838 10.573665893164312 9.043131318421917 0 0 1
168 1 3 0.053 1.5425272042644058 9.467104158085728 10.316347210346215 0 1 0
162 1 3 0.053 1.4646695431128987 6.796276567436799 8.881065789978551 0 1 0
464 3 6 -0.13 2.211700205486193 11.830164702310865 7.409982805774391 0 0 0
1296 7 2 0.012 7.217159973193155 9.02033411260149 10.322821120622132 0 0 1
146 1 1 -0.159 1.1020368226285207 0.8280332482576037 7.607338981447709 0 1 0
1298 7 1 -0.159 6.535356795841582 10.453300055639113 10.144499245576228 0 0 1
1913 10 3 0.053 9.146555005878403 9.588829203144778 6.384914514634985 0 0 1
1910 10 3 0.053 10.809740172925391 11.505647616149886 6.988398514166081 0 0 1
1295 7 3 0.053 8.236419705309963 9.30655594359326 8.389890677996426 0 0 1
1916 10 3 0.053 10.806909113772322 9.071305206534355 7.676334130030991 0 0 1
1293 7 1 -0.041 8.450168876958996 8.891089516394082 9.365548111420532 0 0 1
1286 7 2 0.012 9.650137517831084 6.170609035679635 10.246330150186408 0 0 1
1284 7 3 0.053 11.421803070290537 5.889139249951901 11.267262396470363 0 0 1
1287 7 3 0.053 9.170583552081467 6.305050155827718 11.228607334332418 0 0 1
1292 7 6 -0.13 8.950412185932015 7.225483494290163 8.897188489781199 0 0 1
1903 10 3 0.053 9.026634189149894 11.86859725651553 8.098325367847412 0 0 1
1283 7 1 -0.041 11.07490324173963 6.540645387314992 10.478663862955345 0 0 1
1294 7 3 0.053 9.23718188183064 9.537967218478558 9.698041400254073 0 0 1
1285 7 3 0.053 11.680598073406562 6.533152588409685 9.50409362360922 0 0 1
1282 7 6 -0.13 11.274810304156716 8.285364737856668 11.265080616255474 0 0 1
1279 7 3 0.053 11.897168918770772 10.740646477608633 10.082047801426944 0 0 1
1339 7 3 0.053 9.74049435201106 11.796468500171297 11.198136923182908 0 0 1
243 2 1 -0.041 14.254322622492294 7.0007873038748425 6.919393513430737 0 0 0
245 2 3 0.053 14.034605678090513 6.745571267575683 7.989829264521211 0 0 0
244 2 3 0.053 13.499768869966376 7.642314008423462 6.565139184123883 0 0 0
1277 7 3 0.053 12.573907882907358 8.614939199738622 9.323160076138032 0 0 1
1276 7 2 0.012 12.785368020051866 8.858168727004767 10.347500593966794 0 0 1
1278 7 1 -0.159 12.863007244746791 10.384123655143048 10.387610284083975 0 0 1
1281 7 3 0.053 13.069473615393573 10.747745054219054 11.385624530381179 0 0 1
1274 7 3 0.053 14.003913240854583 8.388659211071278 12.022138936112567 0 0 1
1272 7 6 -0.13 14.481224134372903 6.481901073260434 10.661112108325982 0 0 1
1280 7 3 0.053 13.587784185711866 10.89644853197043 9.742047773018427 0 0 1
1273 7 1 -0.041 14.080000317140778 8.247229513025365 10.953853615346503 0 0 1
1275 7 3 0.053 14.93804014928368 8.770216786997588 10.519791783954929 0 0 1
237 2 3 0.053 14.28030283809559 9.65849745942318 7.0693270133313675 0 0 0
1794 9 3 0.053 2.0318393112525683 13.195704168420379 12.02917967523633 0 0 -1
456 3 3 0.053 4.33044256336531 13.778209031046456 8.346932083676148 0 0 0
458 3 2 0.012 2.40469205305423 13.61039657436334 7.345879263493389 0 0 0
457 3 3 0.053 2.9905923216275134 13.94698847182205 9.543291606459803 0 0 0
455 3 1 -0.041 3.3391180963299716 14.194406252914352 8.525648753152513 0 0 0
459 3 3 0.053 1.3348782914034545 13.992744093877528 7.405979797840982 0 0 0
1138 6 3 0.053 3.3576054048013306 1.4340183727602733 11.763883479371628 1 1 -1
1905 10 3 0.053 6.6910248903690945 12.32716835123685 7.667566467694929 0 0 1
1907 10 3 0.053 7.046571354362594 14.068960402658206 7.2529807641483215 0 0 1
1902 10 2 0.012 8.819663075333128 12.822895981156067 7.574903448483646 0 0 1
1899 10 1 -0.041 9.716731800826123 13.986994705749703 8.109996360629124 0 0 1
1904 10 1 -0.159 7.4078772799499815 13.234542595225669 7.824890326208241 0 0 1
1906 10 3 0.053 7.223531389027764 13.500038312623733 8.915967171827155 0 0 1
1338 7 1 -0.159 10.02234425814547 12.644549028602013 11.892071657892867 0 0 1
1340 7 3 0.053 11.07994835736058 13.002093961649736 11.698921999680792 0 0 1
1901 10 3 0.053 9.442560336114122 14.041154816200331 9.202002504364753 0 0 1
1341 7 3 0.053 9.605441550351987 13.609066632121912 11.684663299120448 0 0 1
1898 10 6 -0.13 11.500747441253184 13.650054752273158 8.020778447612791 0 0 1
1157 6 3 0.053 11.757539761965177 1.0489630413874267 10.027301880003826 1 1 -1
1343 7 1 -0.041 7.423359392380312 13.405526476483208 14.309332038006426 0 0 1
1136 6 1 -0.159 3.4863183395095345 1.1195976735892805 10.665385436598214 1 1 -1
1095 6 3 0.053 5.482256569647574 2.172023262856862 12.88891523201615 1 1 -1
1097 6 3 0.053 4.434344492727991 4.490176396164682 12.669485225635869 1 1 -1
1094 6 2 0.012 5.905493195989512 3.034833250554239 13.383040334997856 1 1 -1
1096 6 1 -0.159 5.486103960801093 4.3074251507389985 12.652573141793678 1 1 -1
1098 6 3 0.053 5.99042844241227 5.144254657225329 13.116097496189804 1 1 -1
180 1 6 -0.13 1.3955131986445304 4.006021909337564 12.859487624784926 0 1 0
1890 10 3 0.053 12.733903657586009 14.359745332128501 5.339457377527847 0 0 1
1333 7 1 -0.041 11.017799596347091 11.132923733429871 13.672204769580196 0 0 1
1099 6 3 0.053 5.823417830325644 4.279236537422174 11.586269414956117 1 1 -1
1100 6 6 -0.13 7.742966958855157 2.7015435846120925 13.442412919203106 1 1 -1
1261 7 3 0.053 11.64900340973754 3.41834975209988 13.404348201554967 0 0 1
1260 7 3 0.053 11.980482225135402 5.2290491055934165 13.797031538290952 0 0 1
1258 7 1 -0.159 12.312911846705028 4.1886608531890035 13.873515962533297 0 0 1
1259 7 3 0.053 12.281807398506901 4.072253477691539 14.9596879200857 0 0 1
1262 7 6 -0.13 14.925577950039928 5.167362648820472 14.001074741871975 0 0 1
1254 7 3 0.053 14.311000610686285 2.16123443878358 14.450162746779487 0 0 1
1256 7 2 0.012 13.669199944216121 3.941056604042511 13.257665937580155 0 0 1
1253 7 1 -0.041 14.163417135044721 2.484545080419244 13.3696481636373 0 0 1
1252 7 6 -0.13 13.155813262602475 1.2207091137269601 12.584704525660227 0 0 1
171 1 1 -0.041 1.123951801541776 6.804721741199331 13.78906885670025 0 1 0
1103 6 3 0.053 9.242504663958048 4.37458395701162 14.242215924578021 1 1 -1
1795 9 3 0.053 2.507869271117298 11.452721830040497 12.338688466671899 0 0 -1
170 1 6 -0.13 2.2788712570964536 7.660356241099954 12.560699063064371 0 1 0
1299 7 3 0.053 5.729520325178738 10.672965830527694 10.821246383721183 0 0 1
1305 7 3 0.053 5.807082507165681 7.26218364544437 12.315122944537725 0 0 1
1303 7 1 -0.041 6.2148709672316125 8.156272731621083 12.842781839867989 0 0 1
1304 7 3 0.053 5.473470934104958 9.008475879308172 12.774711147241117 0 0 1
1300 7 3 0.053 7.328707901035847 11.185290703570312 10.289263600347995 0 0 1
1342 7 6 -0.13 8.537575267693626 11.933180001531804 14.245242223992683 0 0 1
1302 7 6 -0.13 7.7823059385396105 8.760382841781931 12.066756007018112 0 0 1
1335 7 3 0.053 10.460403225597961 10.23650808015391 13.458040466767931 0 0 1
1156 6 1 -0.159 10.877940009960703 1.5287273154962153 9.623451677198391 1 1 -1
1331 7 3 0.053 14.532290711016769 9.873342691631423 14.722668791781249 0 0 1
1325 7 3 0.053 12.324231388366389 8.438480391779539 14.02050234635116 0 0 1
1323 7 1 -0.041 11.970998956751277 8.422675621408992 14.97858788139133 0 0 1
1928 10 6 -0.13 9.832229479771753 7.30419784447309 0.9939026055148259 0 0 1
1345 7 3 0.053 7.5447643899430155 13.915210388608498 13.252606657973315 0 0 1
1307 7 3 0.053 7.275699837123822 7.165787188865176 14.412142667734267 0 0 1
1789 9 3 0.053 2.717611130482079 12.016866909186055 14.970719704984672 0 0 -1
1787 9 1 -0.041 1.9613836599436894 12.753341878272414 14.763368157817482 0 0 -1
1788 9 3 0.053 2.50437045843813 13.621837384648327 14.468567053251354 0 0 -1
1792 9 1 -0.159 1.7022290875780044 12.186235840276671 12.327433562926618 0 0 -1
1900 10 3 0.053 9.445182271041372 14.92500465206302 7.542880440208404 0 0 1
1101 6 1 -0.041 8.384463661324947 3.7688750388586643 14.720624752880276 1 1 -1
254 2 3 0.053 14.807585061145806 3.7376876994313366 3.816020734542123 0 0 0
1158 6 3 0.053 10.12233531877184 1.5294210719759143 10.405823040901565 1 1 -1
1086 6 1 -0.159 4.204165457594794 3.4355740325811412 18.49912554138247 1 1 -1
1088 6 3 0.053 5.035221781927586 4.074715159437615 18.395126627068493 1 1 -1
1089 6 3 0.053 3.44392940583069 4.065896117763026 19.04185074975483 1 1 -1
1084 6 2 0.012 3.7458112054958432 2.8431778600635567 17.123859123330945 1 1 -1
1087 6 3 0.053 4.562319042889365 2.619175373715942 19.169005355890178 1 1 -1
1329 7 3 0.053 14.569838999615417 8.86822534822504 16.107404589516705 0 0 1
266 2 2 0.012 12.746674987717787 2.469804830528791 29.168721852048733 0 0 -1
377 2 3 0.053 2.3361912339266993 1.7544653899385374 23.28047544208357 1 0 -1
8 1 3 0.053 6.999116891895594 7.5514484424306065 19.453632882934492 0 1 0
6 1 1 -0.159 6.586683167456388 6.50474275420085 19.363139189087484 0 1 0
1085 6 3 0.053 3.3872890381075433 3.592452918792568 16.468046286031587 1 1 -1
380 2 3 0.053 2.111685885098927 2.830927245968794 20.49853244876013 1 0 -1
299 2 3 0.053 14.350665708135658 9.059772538172282 19.345678487733032 0 0 -1
616 4 6 -0.13 1.3138495998813773 9.195596996959308 19.778241790912666 1 0 0
7 1 3 0.053 6.976949110227124 6.048890658190051 18.411996828369077 0 1 0
1109 6 3 0.053 9.866171277325572 3.5902289689838875 17.832582872907984 1 1 -1
1106 6 1 -0.159 9.57374474700352 4.13466922167132 16.904306078995837 1 1 -1
1108 6 3 0.053 8.903071005396518 4.878195670053627 17.249208172466375 1 1 -1
1112 6 3 0.053 8.721285603154863 1.034303288227394 17.96748360084021 1 1 -1
1105 6 3 0.053 8.07302195218102 2.6069067218000455 16.552942039860163 1 1 -1
1107 6 3 0.053 10.349667392644928 4.651589627064733 16.390489815834947 1 1 -1
1104 6 2 0.012 8.914779649541156 3.027814849848956 15.992647993415945 1 1 -1
1110 6 6 -0.13 10.0477121904805 1.5875007350204222 15.91507723157263 1 1 -1
1092 6 3 0.053 5.270664322007225 4.2514389339165355 15.0946238222932 1 1 -1
311 2 3 0.053 11.831329978625206 1.9891836850068008 18.84163977489355 0 0 -1
271 2 3 0.053 11.12500064899352 1.0334826556011287 29.0425116181303 0 0 -1
309 2 3 0.053 11.264603891128843 3.428591695803466 19.59325836134132 0 0 -1
666 4 6 -0.13 2.495175976356756 14.706525405856517 26.146085143377313 1 0 0
308 2 1 -0.159 12.113909391334943 2.7990465584505224 19.490092377855127 0 0 -1
1929 10 1 -0.041 8.874436671956849 8.661981831348418 29.24889541407768 0 0 0
669 4 3 0.053 1.6985905876029375 12.956580456909593 24.713561747678632 1 0 0
667 4 1 -0.041 1.1779789098778175 13.772137974352404 25.31854204948413 1 0 0
302 2 6 -0.13 12.609593591279745 5.844002312516801 20.192292803746206 0 0 -1
303 2 1 -0.041 13.933196295261045 4.676354450814318 19.747745931554604 0 0 -1
306 2 2 0.012 13.279398471266626 3.603910241363817 18.87532320357399 0 0 -1
307 2 3 0.053 12.863224558417654 4.126303439184543 17.979271934704137 0 0 -1
312 2 6 -0.13 14.591771369371948 2.3482077934427608 18.388529853511947 0 0 -1
305 2 3 0.053 14.79978071772024 5.15681073367532 19.222617267795272 0 0 -1
1330 7 3 0.053 14.239640249677215 10.65712689632949 16.287778698949182 0 0 1
304 2 3 0.053 14.29634546286121 4.146787410426597 20.680321689117704 0 0 -1
1332 7 6 -0.13 11.682033933365524 11.257193454463495 15.343188031367372 0 0 1
39 1 3 0.053 1.7301276289688472 3.273361177557247 27.985887640504508 0 1 0
1309 7 3 0.053 5.362926071777121 6.934124140020314 15.918534811937231 0 0 1
607 4 1 -0.159 2.383041762442568 8.368180280010563 17.420842251854346 1 0 0
807 4 3 0.053 2.338700227200691 8.30759959315944 16.336879032365474 1 0 0
608 4 3 0.053 3.3673417164988493 8.760788970764288 17.767290562375848 1 0 0
664 4 3 0.053 5.435175531226981 14.6483590071674 26.16379089694533 1 0 0
553 3 3 0.053 14.833100412238089 7.849372033330491 28.608123249446678 -1 0 -1
1482 8 3 0.053 9.71243413951447 0.9706743929153712 21.803164555434357 0 0 0
606 3 4 0.1392 4.180475743045286 10.480781802744605 21.094593831768165 -1 0 -1
604 3 5 -0.2042 5.4727478345093035 10.734384977700397 21.11991352631324 -1 0 -1
609 4 3 0.053 2.3206562597312814 7.329062939282616 17.7860535578803 1 0 0
611 4 3 0.053 1.1463586361940572 10.226085023975493 17.59321133318379 1 0 0
1319 7 3 0.053 9.270870042498622 8.376304143749254 18.42009089921575 0 0 1
1315 7 3 0.053 7.60510210651282 7.437587468258586 16.476384031003498 0 0 1
1318 7 1 -0.159 9.922771403909065 8.013839960024566 17.610855591727606 0 0 1
1080 6 6 -0.13 1.6319746449053927 0.9416194462151226 16.152845474683712 1 1 -1
179 1 3 0.053 0.9860763701580957 5.575828408117403 16.29283499840522 0 1 0
1314 7 3 0.053 7.60435467829933 8.860414852502307 17.428400110625127 0 0 1
1317 7 3 0.053 9.51891256804464 9.81189978209956 16.378709926461426 0 0 1
1312 7 6 -0.13 6.759858595167391 9.378712588378256 15.353318777423674 0 0 1
582 3 3 0.053 10.259872715316137 11.371913500465135 18.709218265733206 -1 0 -1
1316 7 2 0.012 9.451079361297717 8.73299851317044 16.353142968670973 0 0 1
1313 7 1 -0.041 7.868282354949293 8.488644629818657 16.42143963686732 0 0 1
581 3 3 0.053 9.857005081967442 13.148319209665669 18.938829408546596 -1 0 -1
580 3 1 -0.159 10.704438948138165 12.35798370967441 19.012524378596574 -1 0 -1