LAMMPS (22 Jul 2025 - Update 3)
OMP_NUM_THREADS environment is not set. Defaulting to 1 thread.
  using 1 OpenMP thread(s) per MPI task
Reading data file ...
  orthogonal box = (0.56739897 0.56739897 0.56739897) to (29.579085 29.579085 29.579085)
  2 by 2 by 2 MPI processor grid
  reading atoms ...
  2020 atoms
  reading velocities ...
  2020 velocities
  scanning bonds ...
  4 = max bonds/atom
  scanning angles ...
  6 = max angles/atom
  scanning dihedrals ...
  11 = max dihedrals/atom
  scanning impropers ...
  4 = max impropers/atom
  orthogonal box = (0.56739897 0.56739897 0.56739897) to (29.579085 29.579085 29.579085)
  2 by 2 by 2 MPI processor grid
  reading bonds ...
  2010 bonds
  reading angles ...
  3800 angles
  reading dihedrals ...
  4770 dihedrals
  reading impropers ...
  2400 impropers
Finding 1-2 1-3 1-4 neighbors ...
  special bond factors lj:    0        0        1       
  special bond factors coul:  0        0        1       
     4 = max # of 1-2 neighbors
     7 = max # of 1-3 neighbors
    11 = max # of special neighbors
  special bonds CPU = 0.000 seconds
  read_data CPU = 0.033 seconds

CITE-CITE-CITE-CITE-CITE-CITE-CITE-CITE-CITE-CITE-CITE-CITE-CITE

Your simulation uses code contributions which should be cited:
- GPU package (short-range, long-range and three-body potentials): doi:10.1016/j.cpc.2010.12.021, doi:10.1016/j.cpc.2011.10.012, doi:10.1016/j.cpc.2013.08.002, doi:10.1016/j.commatsci.2014.10.068, doi:10.1016/j.cpc.2016.10.020, doi:10.3233/APC200086
The log file lists these citations in BibTeX format.

CITE-CITE-CITE-CITE-CITE-CITE-CITE-CITE-CITE-CITE-CITE-CITE-CITE

PPPM initialization ...
  using 12-bit tables for long-range coulomb
  G vector (1/distance) = 0.28920779
  grid = 18 18 18
  stencil order = 5
  estimated absolute RMS force accuracy = 0.00029416381
  estimated relative force accuracy = 8.8586559e-07
  using double precision KISS FFT
  3d grid and FFT values/proc = 4096 810

--------------------------------------------------------------------------
- Using acceleration for pppm:
-  with 8 proc(s) per device.
-  with 1 thread(s) per proc.
-  Horizontal vector operations: ENABLED
-  Shared memory system: No
--------------------------------------------------------------------------
Device 0: NVIDIA A800 40GB Active, 108 CUs, 36/39 GB, 1.4 GHZ (Mixed Precision)
--------------------------------------------------------------------------

Initializing Device and compiling on process 0...Done.
Initializing Device 0 on core 0...Done.
Initializing Device 0 on core 1...Done.
Initializing Device 0 on core 2...Done.
Initializing Device 0 on core 3...Done.
Initializing Device 0 on core 4...Done.
Initializing Device 0 on core 5...Done.
Initializing Device 0 on core 6...Done.
Initializing Device 0 on core 7...Done.


--------------------------------------------------------------------------
- Using acceleration for lj/class2/coul/long:
-  with 8 proc(s) per device.
-  with 1 thread(s) per proc.
-  Horizontal vector operations: ENABLED
-  Shared memory system: No
--------------------------------------------------------------------------
Device 0: NVIDIA A800 40GB Active, 108 CUs, 36/39 GB, 1.4 GHZ (Mixed Precision)
--------------------------------------------------------------------------

Initializing Device and compiling on process 0...Done.
Initializing Device 0 on core 0...Done.
Initializing Device 0 on core 1...Done.
Initializing Device 0 on core 2...Done.
Initializing Device 0 on core 3...Done.
Initializing Device 0 on core 4...Done.
Initializing Device 0 on core 5...Done.
Initializing Device 0 on core 6...Done.
Initializing Device 0 on core 7...Done.

Generated 15 of 15 mixed pair_coeff terms from sixthpower/sixthpower mixing rule
Neighbor list info ...
  update: every = 1 steps, delay = 0 steps, check = yes
  max neighbors/atom: 4000, page size: 100000
  master list distance cutoff = 11.5
  ghost atom cutoff = 11.5
  binsize = 5.75, bins = 6 6 6
  1 neighbor lists, perpetual/occasional/extra = 1 0 0
  (1) pair lj/class2/coul/long/gpu, perpetual
      attributes: full, newton on
      pair build: full/bin
      stencil: full/bin/3d
      bin: standard
Setting up Verlet run ...
  Unit style    : real
  Current step  : 0
  Time step     : 1
Per MPI rank memory allocation (min/avg/max) = 15.48 | 15.49 | 15.5 Mbytes
   Step          Time           Temp          Press         Enthalpy        TotEng         KinEng         PotEng         E_bond        E_angle        E_dihed        E_impro         E_vdwl         E_coul         E_long         E_tail         Volume           Lx             Ly             Lz          Density          Pxx            Pyy            Pzz      
         0   0              306.54731      624.44678     -312.36692     -534.74411      1844.8801     -2379.6242      768.04605      1098.7561     -3493.4715     -0.14797306    -350.65015      268.62782     -670.78448     -85.90688       24418.496      29.011686      29.011686      29.011686      1.0097959     -304.80002      708.42241      1469.7179    
      1000   1000           298.18738      682.34105     -373.95786     -626.47735      1794.5678     -2421.0452      673.41217      1154.3257     -3498.4412      1.0623399     -350.21932      269.86909     -671.05392     -82.66646       25375.67       29.385912      29.385912      29.385912      0.97170624     816.99402     -1319.9313      2549.9604    
      2000   2000           301.88597     -287.75118     -696.86976     -593.09855      1816.8269     -2409.9255      730.45379      1136.7239     -3503.039       2.3420912     -377.35433      269.88717     -668.93902     -84.832642      24727.708      29.133631      29.133631      29.133631      0.99716872     1202.579      -1199.9453     -865.8872     
      3000   3000           298.04768      426.71558     -530.03739     -681.93562      1793.7271     -2475.6627      694.83205      1103.8358     -3531.618       2.1209261     -347.29806      273.26493     -670.80035     -85.94261       24408.344      29.007665      29.007665      29.007665      1.0102159     -1124.139       1898.4256      505.8602     
      4000   4000           293.85914     -1540.0276     -1192.6843     -628.41968      1768.5194     -2396.939       708.96458      1179.8599     -3536.6263      2.8958534     -350.46219      269.48656     -671.05745     -83.496538      25123.398      29.288208      29.288208      29.288208      0.98146343    -2699.2199      302.87157     -2223.7345    
      5000   5000           309.96882      403.66411     -448.71785     -594.09884      1865.4715     -2459.5704      700.68793      1111.6402     -3495.6168      0.013216452   -370.37394      266.82498     -672.74599     -84.944499      24695.146      29.120838      29.120838      29.120838      0.99848354    -423.26514      1235.0678      399.18966    
      6000   6000           301.37994     -1113.523      -1067.5215     -667.79832      1813.7815     -2481.5798      684.60641      1052.403      -3486.2391      1.1122761     -332.19945      269.16162     -670.42451     -85.224137      24614.116      29.088952      29.088952      29.088952      1.0017706     -2247.7517     -2183.8352      1091.0178    
      7000   7000           298.81692     -604.231       -775.59507     -554.18193      1798.3566     -2352.5385      708.58587      1159.8669     -3487.9675      0.92284959    -338.4584       272.54319     -668.03138     -83.487674      25126.066      29.289244      29.289244      29.289244      0.98135924     1660.4258     -1303.5653     -2169.5535    
      8000   8000           298.04984     -475.61476     -813.88061     -641.81042      1793.7401     -2435.5505      685.24561      1157.5568     -3519.0044      2.5417378     -366.26293      272.60044     -668.2278      -84.56145       24807.011      29.164742      29.164742      29.164742      0.99398097    -2844.7583     -91.784169      1509.6982    
      9000   9000           308.44661      2506.7707      328.23281     -569.41527      1856.3105     -2425.7258      652.89906      1163.2412     -3483.5658      1.2920162     -356.65766      268.55813     -671.49277     -85.4341        24553.624      29.065103      29.065103      29.065103      1.0042386      2165.9244      4260.3423      1094.0455    
     10000   10000          295.1445       352.57935     -554.58401     -681.71849      1776.255      -2457.9735      674.459        1122.6766     -3495.2641      2.9134945     -358.89671      268.18971     -672.05152     -84.843052      24724.674      29.13244       29.13244       29.13244       0.99729107    -1062.7633     -184.08033      2304.5817    
     11000   11000          310.38028     -2063.3339     -1287.6327     -534.8368       1867.9479     -2402.7847      700.5186       1138.4154     -3506.2552      3.1700377     -331.98244      265.92445     -672.57545     -83.852308      25016.805      29.246728      29.246728      29.246728      0.98564534     30.964237     -3217.3801     -3003.5857    
     12000   12000          296.2284       54.896686     -635.20662     -655.15638      1782.7782     -2437.9346      712.45905      1083.1176     -3499.6291      1.7272678     -333.37696      269.80893     -672.04135     -84.1843        24918.147      29.208231      29.208231      29.208231      0.98954775    -380.19907     -741.18739      1286.0765    
     13000   13000          292.26         84.353767     -680.95006     -711.37312      1758.8953     -2470.2685      696.25738      1097.8804     -3507.7467      1.7691198     -353.74456      267.84149     -672.52556     -84.825092      24729.909      29.134496      29.134496      29.134496      0.99707997    -1035.5927      1494.8228     -206.16882    
     14000   14000          296.51198     -2713.3988     -1592.795      -621.33526      1784.4848     -2405.8201      736.21623      1131.9164     -3517.8871      1.1238939     -351.61992      266.68388     -672.25342     -85.449903      24549.083      29.063311      29.063311      29.063311      1.0044243     -3245.2101     -2141.2243     -2753.762     
     15000   15000          296.60235      307.39329     -535.4691      -648.50263      1785.0287     -2433.5313      710.99138      1117.773      -3533.6474      1.0379351     -327.33472      270.24257     -672.59413     -83.19742       25213.724      29.323266      29.323266      29.323266      0.97794743    -81.269752      585.30993      418.13969    
     16000   16000          301.47137     -896.52195     -922.21917     -601.14989      1814.3317     -2415.4816      693.24778      1137.0657     -3499.0584      1.3356829     -340.02167      263.16491     -671.21558     -85.424985      24556.244      29.066137      29.066137      29.066137      1.0041314      432.72193     -1271.0968     -1851.191     
     17000   17000          295.32647      352.31706     -537.28136     -666.238        1777.3502     -2443.5882      699.59411      1095.9516     -3503.8637     -0.070174124   -330.96976      267.31165     -671.54188     -83.581995      25097.712      29.278223      29.278223      29.278223      0.98246793    -100.77066      1072.3281      85.393753    
     18000   18000          293.63184     -885.08174     -987.62741     -674.50241      1767.1514     -2441.6539      688.90561      1111.2419     -3474.3866      2.6897851     -367.9527       269.47405     -671.6259      -86.474565      24258.194      28.948062      28.948062      28.948062      1.0164688     -161.99637     -588.81012     -1904.4387    
     19000   19000          305.23406      1063.5541     -245.40243     -628.38218      1836.9766     -2465.3587      684.55979      1117.6679     -3509.3532      2.7143269     -362.74947      269.43657     -667.63466     -84.958437      24691.095      29.119245      29.119245      29.119245      0.99864738     1279.5742     -87.533475      1998.6215    
     20000   20000          284.37197     -1723.2735     -1391.1987     -763.16907      1711.4231     -2474.5922      689.02319      1102.1144     -3518.6521      1.1924529     -350.21786      270.63581     -668.68809     -83.945384      24989.067      29.235914      29.235914      29.235914      0.9867394     -2000.457      -1963.8943     -1205.4692    
     21000   21000          302.14657     -1764.7137     -1226.7419     -590.54623      1818.3952     -2408.9415      700.39309      1123.2837     -3475.854       2.0074648     -358.92555      270.1088      -669.95496     -84.860634      24719.551      29.130428      29.130428      29.130428      0.99749774    -2121.8754      889.25599     -4061.5217    
     22000   22000          306.07906      1276.5282     -62.150695     -526.00894      1842.062      -2368.0709      713.6376       1186.2015     -3533.8712      2.0518408     -331.24502      267.16527     -672.01087     -84.191425      24916.039      29.207407      29.207407      29.207407      0.98963151     458.848        1291.66        2079.0765    
     23000   23000          292.31342      523.5656      -428.59798     -619.95747      1759.2169     -2379.1743      698.24111      1119.3429     -3473.8333      1.6937486     -321.76234      267.54437     -670.40077     -83.703543      25061.266      29.264044      29.264044      29.264044      0.98389668     382.99801      614.76695      572.93184    
     24000   24000          295.71301     -426.1709      -793.91241     -639.84641      1779.6765     -2419.5229      691.92394      1143.3998     -3501.2904      0.97451608    -352.28204      268.79356     -671.0422      -84.625204      24788.322      29.157417      29.157417      29.157417      0.99473037    -540.95858     -793.00827      55.454162    
     25000   25000          306.19836      1241.9014     -97.873695     -537.73847      1842.7799     -2380.5184      707.02641      1171.1476     -3503.4161      2.2902167     -352.20441      266.28193     -671.64409     -86.375522      24286.01       28.959122      28.959122      28.959122      1.0153046      3155.861       1294.6647     -724.82146    
     26000   26000          301.00585      1695.1286      34.360852     -592.63441      1811.5301     -2404.1645      684.57614      1124.3195     -3494.5535      1.5278835     -313.3226       265.0851      -671.79708     -82.710596      25362.129      29.380684      29.380684      29.380684      0.97222503     3342.0074      1198.5485      544.82996    
     27000   27000          298.66424     -1495.562      -1182.2351     -629.48979      1797.4377     -2426.9275      697.23342      1102.5256     -3481.8194      0.32822808    -341.86914      268.95412     -672.28029     -82.77555       25342.227      29.372997      29.372997      29.372997      0.97298854     122.1387      -1737.3275     -2871.4971    
     28000   28000          295.90325      106.53527     -607.69141     -646.54417      1780.8214     -2427.3655      707.44234      1138.9124     -3513.0184      0.92126782    -351.06772      265.31268     -675.8681      -83.886918      25006.483      29.242705      29.242705      29.242705      0.98605216    -526.23055      535.52004      310.31634    
     29000   29000          303.18478     -1631.5189     -1175.711      -582.97615      1824.6435     -2407.6196      718.05263      1141.7366     -3524.9824     -0.23987788    -332.72213      264.66225     -674.12664     -84.208203      24911.074      29.205467      29.205467      29.205467      0.98982872    -1543.3616     -555.34007     -2795.8552    
     30000   30000          297.313        86.802238     -616.50917     -648.32199      1789.3056     -2437.6276      696.20405      1116.5557     -3489.4349      1.4194399     -354.96066      265.91712     -673.32838     -83.474069      25130.161      29.290835      29.290835      29.290835      0.98119931    -81.863642      108.2618       234.00855    
     31000   31000          304.57167      569.7661      -430.07173     -635.97042      1832.9901     -2468.9605      693.82478      1088.3857     -3475.9758      2.4943008     -373.35019      268.93884     -673.27812     -84.657565      24778.846      29.153701      29.153701      29.153701      0.99511077     2121.4008     -922.55974      510.45724    
     32000   32000          310.53014      684.67711     -280.31973     -529.6867       1868.8497     -2398.5364      677.95324      1154.2774     -3485.6806      2.5166353     -348.23259      271.10249     -670.47296     -83.998132      24973.374      29.229793      29.229793      29.229793      0.98735943     755.58844      1489.8091     -191.36624    
     33000   33000          301.46908     -1084.8044     -1023.5603     -624.0232       1814.3179     -2438.3411      694.01534      1096.3585     -3467.9208      2.3755759     -356.87922      266.09174     -672.38231     -83.064807      25253.978      29.338862      29.338862      29.338862      0.97638863    -1090.9157     -96.741921     -2066.7556    
     34000   34000          305.11248      765.57215     -327.95576     -606.10399      1836.2449     -2442.3489      694.6284       1081.5041     -3492.7435      2.1532844     -320.27836      263.37346     -670.98627     -84.203971      24912.326      29.205956      29.205956      29.205956      0.98977898     1605.7058      386.80019      304.21046    
     35000   35000          300.59376     -1853.4517     -1227.9342     -551.00395      1809.05       -2360.054       745.81211      1111.2535     -3484.8131      0.15694261    -322.73565      262.25255     -671.98033     -83.764516      25043.024      29.256942      29.256942      29.256942      0.98461338    -1226.5984     -482.76034     -3850.9964    
     36000   36000          290.92542      443.79714     -416.66713     -577.5476       1750.8635     -2328.4111      703.4255       1162.9587     -3464.5261      2.2195633     -328.10331      266.71231     -671.09782     -84.392514      24856.669      29.18419       29.18419       29.18419       0.99199521    -140.23534      1127.2873      344.3394     
     37000   37000          302.49993      39.219999     -615.90708     -630.08236      1820.5218     -2450.6042      708.27542      1089.7661     -3478.3229      2.458913      -369.80542      267.51978     -670.49613     -84.644496      24782.672      29.155201      29.155201      29.155201      0.99495714    -407.92119      936.59529     -411.01411    
     38000   38000          301.56394     -1404.679      -1070.1066     -544.85211      1814.8888     -2359.7409      700.12596      1102.0159     -3452.1268      0.1010937     -305.42066      265.39795     -669.8343      -81.814463      25639.926      29.487566      29.487566      29.487566      0.9616914     -691.50911     -2135.3481     -1387.1798    
     39000   39000          297.24835      1334.75       -111.98536     -598.95594      1788.9165     -2387.8725      681.88474      1097.5136     -3456.916       1.2316557     -308.35223      266.49737     -669.73164     -83.85326       25016.521      29.246617      29.246617      29.246617      0.98565653     1144.901       917.19554      1942.1534    
     40000   40000          301.46423     -101.20977     -625.58524     -588.50489      1814.2888     -2402.7937      691.05782      1095.5343     -3461.3401      1.9022309     -324.62658      265.72271     -671.04408     -83.502869      25121.494      29.287467      29.287467      29.287467      0.98153785    -1170.5226      69.808012      797.08523    
     41000   41000          295.12         202.95537     -561.46097     -636.2518       1776.1075     -2412.3593      694.2113       1090.2507     -3455.0521     -0.44007175    -338.89219      268.43861     -670.87556     -83.018507      25268.062      29.344315      29.344315      29.344315      0.97584438     416.88887      632.48487     -440.50764    
     42000   42000          308.92659      938.71787     -123.1772      -464.79988      1859.1992     -2323.999       745.01328      1134.3528     -3459.4092      1.2599455     -339.49144      266.36524     -672.08962     -84.06421       24953.744      29.222133      29.222133      29.222133      0.98813615     3127.5761      501.64506     -813.06752    
     43000   43000          295.31687     -828.05891     -923.83281     -624.91153      1777.2924     -2402.2039      695.03467      1131.6875     -3449.695      -0.59744706    -371.18878      265.64716     -673.09199     -84.747549      24752.537      29.143379      29.143379      29.143379      0.99616848    -3604.9518      905.0854       215.68966    
     44000   44000          304.78284      212.96232     -499.20153     -578.04572      1834.261      -2412.3067      651.05995      1156.3479     -3511.8538      1.26304       -309.25807      271.18264     -671.04842     -82.633439      25385.81       29.389826      29.389826      29.389826      0.97131809    -484.37447     -955.28235      2078.5438    
     45000   45000          305.27652      1837.2332      80.714489     -580.13184      1837.2321     -2417.3639      699.22862      1104.5521     -3470.2221      0.42163314    -339.33685      261.92744     -673.93473     -85.052394      24663.819      29.108519      29.108519      29.108519      0.99975179     775.92218      2738.6548      1997.1226    
     46000   46000          297.47013      86.691655     -663.12066     -694.96057      1790.2512     -2485.2118      645.92177      1110.624      -3488.812       1.603627      -349.61473      267.46444     -672.39897     -83.296767      25183.652      29.311603      29.311603      29.311603      0.97911521     80.759256      1089.9626     -910.6469     
     47000   47000          305.73219     -2046.4818     -1313.4265     -565.91538      1839.9744     -2405.8898      706.14153      1135.7386     -3515.914       1.3576579     -326.66742      265.82292     -672.3691      -83.755428      25045.742      29.258         29.258         29.258         0.98450656    -1049.0573     -2642.0846     -2448.3035    
     48000   48000          301.02998     -16.668283     -647.96269     -641.83601      1811.6753     -2453.5114      665.78681      1088.1923     -3481.4813     -0.46942944    -324.51559      268.7433      -669.76749     -83.231589      25203.373      29.319252      29.319252      29.319252      0.97834907     620.50618     -156.09292     -514.41811    
     49000   49000          303.97178     -341.51815     -655.01015     -532.52379      1829.3798     -2361.9036      711.48733      1162.1458     -3490.0543      1.9896055     -341.09789      265.91371     -672.2879      -85.299958      24592.237      29.080331      29.080331      29.080331      1.0026618     -1058.6813      1423.4652     -1389.3383    
     50000   50000          292.32218      448.60251     -504.09851     -665.98587      1759.2696     -2425.2555      700.67515      1119.0243     -3506.3843      1.6090932     -331.35204      263.71048     -672.53808     -84.775722      24744.311      29.14015       29.14015       29.14015       0.99649964    -97.412018      400.23445      1042.9851    
     51000   51000          299.86084      108.66228     -496.24467     -535.78918      1804.6392     -2340.4284      747.94164      1147.309      -3502.0344      1.5729019     -330.40133      267.06421     -671.88042     -84.065032      24953.5        29.222037      29.222037      29.222037      0.98814581     2667.1396     -2656.3538      315.20106    
     52000   52000          301.61272     -1.4165627     -569.54683     -569.04404      1815.1824     -2384.2264      686.58879      1133.4646     -3446.964       1.6741457     -353.82126      266.02216     -671.19087     -86.192529      24337.571      28.979602      28.979602      28.979602      1.0131536      28.666717      328.44366     -361.36006    
     53000   53000          295.50943     -426.35813     -837.64126     -685.48773      1778.4512     -2463.939       693.12423      1095.6362     -3503.5881      2.2608345     -347.12257      266.21836     -670.46788     -85.726533      24469.866      29.032016      29.032016      29.032016      1.007676      -646.88202     -348.10755     -284.08482    
     54000   54000          299.43331      2066.7242      77.719401     -658.6678       1802.0662     -2460.7339      698.57929      1063.7161     -3469.6002      1.3716179     -350.91585      267.17433     -671.05919     -85.861614      24431.369      29.016784      29.016784      29.016784      1.0092638      550.66745      3163.7266      2485.7786    
     55000   55000          303.16409     -601.04969     -797.51817     -582.55138      1824.5189     -2407.0703      728.34942      1151.0528     -3546.5518      2.1093429     -335.16005      263.7568      -670.62681     -85.538525      24523.65       29.053271      29.053271      29.053271      1.005466       545.97429     -670.02394     -1679.0994    
     56000   56000          299.92496     -35.613764     -656.59948     -643.86416      1805.025      -2448.8892      681.294        1143.0874     -3512.9761      1.4099773     -357.12927      267.18395     -671.75914     -85.552126      24519.751      29.051731      29.051731      29.051731      1.0056259     -144.63749     -2248.4093      2286.2055    
     57000   57000          289.36502     -159.5412      -691.83936     -634.60247      1741.4726     -2376.0751      711.41956      1130.842      -3463.1799      1.5867361     -356.55589      270.46596     -670.65348     -85.274573      24599.558      29.083216      29.083216      29.083216      1.0023634      896.06126     -1664.9434      290.25852    
     58000   58000          297.39176      2427.8321      281.8475      -583.54722      1789.7796     -2373.3268      725.71503      1139.1896     -3509.2353      1.3617423     -327.84612      267.93644     -670.44819     -85.827637      24441.041      29.020612      29.020612      29.020612      1.0088644      1612.5772      953.51031      4717.4087    
     59000   59000          300.69489     -879.683       -920.85155     -605.14443      1809.6587     -2414.8031      727.4933       1076.5262     -3465.4831      0.87869451    -353.34627      269.13882     -670.01076     -85.244148      24608.338      29.086676      29.086676      29.086676      1.0020058     -879.16112     -2392.2342      632.34636    
     60000   60000          299.84018      667.39239     -404.55022     -642.51752      1804.5148     -2447.0324      663.7866       1127.4711     -3480.4277      0.42299663    -354.15806      266.3478      -670.47507     -85.799884      24448.947      29.023741      29.023741      29.023741      1.0085382     -2780.5278      2235.9419      2546.763     
     61000   61000          306.4907       206.73383     -479.03917     -554.81881      1844.5394     -2399.3582      683.02493      1122.5806     -3491.8404      2.7441776     -313.68029      269.29012     -671.47731     -83.460645      25134.203      29.292406      29.292406      29.292406      0.98104151     671.06274      437.43595     -488.2972     
     62000   62000          295.24653     -913.63873     -998.81991     -679.96856      1776.8691     -2456.8376      709.67751      1108.7754     -3513.4216      2.6455076     -366.25158      269.28565     -667.5485      -87.661517      23929.734      28.816814      28.816814      28.816814      1.0304208      362.83419     -1872.0146     -1231.7357    
     63000   63000          301.8291      -291.58723     -734.14477     -626.96937      1816.4846     -2443.454       648.96596      1149.1507     -3519.555      -0.62375327    -318.69113      267.1209      -669.82167     -83.233115      25202.911      29.319073      29.319073      29.319073      0.97836701     55.331196     -1429.4407      499.34785    
     64000   64000          312.61941     -259.12118     -628.17681     -532.99282      1881.4235     -2414.4163      692.80219      1117.0125     -3493.5507      2.7728515     -330.1475       268.45998     -671.76566     -83.284033      25187.503      29.313097      29.313097      29.313097      0.97896552     1767.6179     -1101.7915     -1443.1899    
     65000   65000          306.33476      501.31493     -420.49048     -602.36964      1843.6008     -2445.9705      718.79062      1101.6016     -3515.6364      1.927436      -352.12714      269.89841     -670.42506     -84.323853      24876.909      29.192109      29.192109      29.192109      0.99118813    -1757.1246      2513.809       747.26036    
     66000   66000          308.56918     -1958.4976     -1245.2744     -526.61379      1857.0481     -2383.6619      726.11396      1123.7997     -3510.339       1.9469036     -325.79001      269.29442     -668.68791     -83.372329      25160.828      29.302745      29.302745      29.302745      0.98000341    -2588.4251     -1974.7452     -1312.3225    
     67000   67000          295.89522     -843.19626     -935.28194     -630.31385      1780.773      -2411.0869      704.31387      1148.285      -3519.2712      2.452515      -341.92796      267.06687     -672.00592     -84.585714      24799.895      29.161953      29.161953      29.161953      0.99426619    -1226.4053      1969.4109     -3272.5943    
     68000   68000          290.65229     -4125.3403     -2122.0886     -601.90958      1749.2198     -2351.1293      740.72396      1186.1101     -3543.5114      1.3436138     -335.59483      270.19497     -670.39576     -83.020965      25267.314      29.344026      29.344026      29.344026      0.97587328    -3314.5408     -5131.2621     -3930.2179    
     69000   69000          310.78598     -48.194712     -562.52017     -545.08087      1870.3894     -2415.4703      704.09442      1123.9493     -3527.3517      1.9792345     -317.38462      269.5982      -670.35507     -84.546019      24811.539      29.166517      29.166517      29.166517      0.99379959    -699.1255      -413.88206      968.42342    
     70000   70000          292.17938      2216.4829      68.224982     -737.71211      1758.4102     -2496.1223      656.50543      1102.3992     -3521.6377      0.57050079    -333.77135      270.42804     -670.61634     -84.1368        24932.215      29.213726      29.213726      29.213726      0.98898941     1239.2133      2657.1346      2753.1008    
     71000   71000          310.04329      1267.1532     -63.75504      -529.51326      1865.9197     -2395.433       734.39936      1110.1745     -3503.5658      1.6869586     -339.56877      269.62053     -668.17983     -83.232194      25203.19       29.319181      29.319181      29.319181      0.97835618     1882.261       492.76849      1426.4301    
     72000   72000          299.53628      2237.1873      157.47941     -651.51716      1802.6859     -2454.203       662.6066       1108.8995     -3492.8393      1.8881576     -338.44786      270.68257     -666.99265     -84.601569      24795.247      29.160132      29.160132      29.160132      0.99445256     1001.345       2243.7221      3466.4949    
     73000   73000          291.96096     -2432.0974     -1488.1335     -605.51665      1757.0956     -2362.6123      710.29715      1147.1694     -3480.451       1.1029537     -337.21184      266.64764     -670.16656     -84.300761      24883.723      29.194774      29.194774      29.194774      0.9909167     -1841.1358     -2406.4748     -3048.6817    
     74000   74000          286.99134      2039.5681     -18.025612     -749.95289      1727.1872     -2477.1401      668.45019      1101.1722     -3509.3843      1.6257821     -338.98447      267.6459      -667.66536     -85.249734      24606.726      29.086041      29.086041      29.086041      1.0020714      1400.244       2531.5326      2186.9278    
     75000   75000          286.13867     -297.81474     -726.28499     -618.55488      1722.0556     -2340.6105      705.22477      1113.9235     -3436.3988      1.3149271     -327.56779      272.29714     -669.40431     -84.573019      24803.617      29.163413      29.163413      29.163413      0.99411696     34.49073      -74.22974      -853.70521    
     76000   76000          298.73246     -521.47949     -820.01215     -629.38482      1797.8482     -2427.2331      703.07992      1096.1319     -3508.3067      1.8163578     -318.8985       268.02003     -669.07612     -83.690242      25065.25       29.265594      29.265594      29.265594      0.98374032    -493.93966     -168.90283     -901.59599    
     77000   77000          299.33204     -221.95361     -744.81575     -663.66264      1801.4567     -2465.1193      673.36204      1082.6127     -3502.0089     -0.80602592    -316.51143      267.49624     -669.26396     -83.671927      25070.736      29.267729      29.267729      29.267729      0.98352504     1101.0791     -1611.4707     -155.46919    
     78000   78000          304.42652      450.15833     -406.96358     -570.42396      1832.1166     -2402.5405      710.83646      1086.2683     -3462.2026     -0.72499026    -334.10043      267.17837     -669.79559     -84.251089      24898.394      29.200511      29.200511      29.200511      0.99033283     2759.9132     -1570.7186      161.28033    
     79000   79000          298.62079      1208.1279     -211.34907     -646.28676      1797.1762     -2443.463       718.54619      1088.3008     -3506.7767      0.080829204   -338.19857      266.24917     -671.66469     -84.978413      24685.29       29.116963      29.116963      29.116963      0.99888218     817.38262      1618.3826      1188.6185    
     80000   80000          297.01028     -1382.2896     -1204.1687     -701.73387      1787.4838     -2489.2176      695.09842      1070.6312     -3499.1251      1.8778936     -360.04776      270.26287     -667.91515     -84.167045      24923.256      29.210227      29.210227      29.210227      0.98934492     114.7765      -1373.3992     -2888.2461    
     81000   81000          304.70463     -1371.9944     -1097.1918     -604.28373      1833.7903     -2438.0741      671.90114      1106.437      -3484.577       1.7625878     -331.63581      266.78125     -668.74321     -85.154798      24634.159      29.096846      29.096846      29.096846      1.0009555     -1211.2509     -198.08936     -2706.6429    
     82000   82000          289.33957     -444.6034      -884.32013     -726.02441      1741.3195     -2467.3439      678.84065      1080.5003     -3474.7224      0.97155483    -346.46833      264.36206     -670.82774     -85.926344      24412.965      29.009495      29.009495      29.009495      1.0100247     -461.48028     -1075.623       203.29303    
     83000   83000          296.55853      1713.8213     -47.712634     -665.67616      1784.765      -2450.4411      674.15176      1111.5529     -3489.7593      0.69322532    -340.08006      265.91167     -672.91133     -84.844844      24724.152      29.132235      29.132235      29.132235      0.99731214     457.92038      3878.614       804.92967    
     84000   84000          301.47048     -132.52193     -644.29892     -595.61267      1814.3264     -2409.939       699.34213      1117.5952     -3495.2998      2.0476366     -332.13343      267.90003     -669.39079     -83.272989      25190.843      29.314393      29.314393      29.314393      0.97883571    -1430.1483     -687.362        1719.9445    
     85000   85000          310.39708      426.73957     -363.50896     -518.6038       1868.0489     -2386.6527      748.91648      1091.3895     -3497.1145      1.2153633     -328.37287      266.19671     -668.88346     -84.176006      24920.603      29.20919       29.20919       29.20919       0.98945026     849.11254     -1063.7566      1494.8627    
     86000   86000          302.19835     -834.39524     -928.25917     -627.28622      1818.7069     -2445.9931      693.95134      1105.5997     -3494.8511      2.1256778     -348.2426       268.3801      -672.95616     -84.813913      24733.169      29.135776      29.135776      29.135776      0.99694856    -2233.329       451.26511     -721.1218     
     87000   87000          299.49262      816.31644     -350.42967     -650.16773      1802.4231     -2452.5908      644.43002      1102.9618     -3479.6         2.5207627     -320.24901      267.30311     -669.9575      -83.318108      25177.202      29.3091        29.3091        29.3091        0.97936606     3190.5834     -154.09806     -587.53599    
     88000   88000          300.84455      469.53416     -495.25907     -662.58391      1810.5593     -2473.1432      691.8928       1086.1152     -3479.8286      1.5789303     -365.6117       265.0295      -672.31936     -85.847871      24435.281      29.018332      29.018332      29.018332      1.0091023     -782.67725      1652.0884      539.19134    
     89000   89000          304.63643      407.91377     -455.29043     -600.67157      1833.3799     -2434.0515      648.99163      1176.8766     -3499.9217      0.94392552    -354.76907      264.89623     -671.06903     -85.838686      24437.895      29.019367      29.019367      29.019367      1.0089943      992.0181      -372.32208      604.04529    
     90000   90000          299.10626     -2273.5811     -1480.7079     -648.70377      1800.0979     -2448.8016      705.93092      1095.3434     -3506.7405      2.1083811     -336.66193      264.80949     -673.59138     -83.600274      25092.224      29.276089      29.276089      29.276089      0.98268279    -3358.383      -1782.8716     -1679.4888    
     91000   91000          310.62939      2151.7019      200.46645     -586.67412      1869.447      -2456.1212      658.76533      1120.8474     -3497.457       0.74800684    -332.9648       265.37597     -671.436       -83.628163      25083.856      29.272834      29.272834      29.272834      0.98301062     2465.9089      1160.7452      2828.4516    
     92000   92000          314.31174     -273.99361     -591.68767     -491.29775      1891.6084     -2382.9061      715.40901      1122.7855     -3474.8949     -0.44931512    -338.98038      265.62076     -672.39674     -83.497428      25123.131      29.288104      29.288104      29.288104      0.98147388     496.07135     -2481.3365      1163.2844    
     93000   93000          289.41126     -131.69626     -799.73995     -751.92817      1741.7509     -2493.679       674.91913      1078.4547     -3516.7127      1.4675671     -326.6884       266.47413     -671.59349     -84.267719      24893.48       29.19859       29.19859       29.19859       0.9905283     -1768.0371      350.01513      1022.9331    
     94000   94000          303.80895     -746.5097      -879.729       -607.47948      1828.3999     -2435.8793      720.24399      1087.1308     -3503.87        1.6131682     -338.83461      268.97098     -671.13367     -83.886307      25006.665      29.242776      29.242776      29.242776      0.98604498    -1712.1204     -1155.457       628.04826    
     95000   95000          303.05915      1450.8644     -102.35573     -623.19473      1823.8874     -2447.0821      705.1127       1075.5433     -3478.3579      2.0646409     -349.4616       269.36914     -671.35242     -85.220892      24615.053      29.089322      29.089322      29.089322      1.0017324      2338.6851      1879.0541      134.85413    
     96000   96000          293.57756      1256.4402     -261.86419     -708.00163      1766.8247     -2474.8264      666.33639      1099.3567     -3486.3481      0.74095055    -348.4076       265.44214     -671.94684     -86.15806       24347.308      28.983466      28.983466      28.983466      1.0127484     -479.30386      3041.9197      1206.7049    
     97000   97000          293.64712      173.24036     -606.82495     -668.88609      1767.2434     -2436.1295      698.51289      1103.6751     -3485.7808      2.0486926     -348.35211      265.90245     -672.1357      -85.39886       24563.757      29.069101      29.069101      29.069101      1.0038243     -964.52111      1564.5832     -80.340965    
     98000   98000          301.0836       6.8599947     -636.70429     -639.17187      1811.998      -2451.1699      668.82401      1132.5305     -3489.5636      1.6739668     -358.71875      265.99692     -671.91298     -85.049985      24664.517      29.108793      29.108793      29.108793      0.99972348     1508.3602     -1040.3286     -447.45165    
     99000   99000          313.81639     -278.48866     -656.09555     -556.69766      1888.6272     -2445.3249      683.41809      1130.1362     -3484.5844      2.1004346     -369.89878      264.509       -671.00544     -85.714259      24473.37       29.033402      29.033402      29.033402      1.0075317     -658.00042      1472.9881     -1650.4537    
    100000   100000         306.22798     -890.07899     -937.0768      -614.76072      1842.9582     -2457.7189      706.87094      1094.5805     -3515.0171      1.3299971     -344.8149       270.4755      -671.1439      -84.482998      24830.047      29.173767      29.173767      29.173767      0.9930588      658.62345     -1235.8103     -2093.0501    
    101000   101000         287.66886     -1248.9884     -1160.3469     -708.12732      1731.2647     -2439.392       705.84323      1111.5734     -3525.752      -0.33093153    -326.90218      267.86928     -671.69286     -84.495142      24826.478      29.172369      29.172369      29.172369      0.99320156    -254.59821     -2726.8833     -765.48363    
    102000   102000         293.06904     -620.03588     -893.58838     -668.42964      1763.7643     -2432.194       691.27345      1089.0598     -3463.8114      0.0052170887  -344.65385      267.74963     -671.8168      -84.246284      24899.814      29.201066      29.201066      29.201066      0.99027634    -311.86436     -2270.7003      722.45699    
    103000   103000         309.69008      1721.4496      27.656225     -589.51184      1863.794      -2453.3058      704.2471       1129.2552     -3534.6067      1.8618846     -353.35947      270.30123     -671.0051      -85.332334      24582.907      29.076653      29.076653      29.076653      1.0030424      2066.4668      2763.8558      334.0263     
    104000   104000         290.83612     -271.04538     -795.17442     -698.32444      1750.3261     -2448.6505      704.06077      1126.52       -3534.0026      1.1749989     -341.838        268.03033     -672.596       -85.618025      24500.878      29.044276      29.044276      29.044276      1.0064005     -170.42047      673.65826     -1316.3739    
    105000   105000         302.31261     -245.68651     -725.07773     -635.76534      1819.3945     -2455.1599      674.42819      1114.4033     -3513.5733      0.41981106    -326.26812      267.6232      -672.193       -84.157408      24926.11       29.211341      29.211341      29.211341      0.98923165    -117.09496      308.22507     -928.18965    
    106000   106000         292.21176     -2235.0022     -1487.378      -680.4825       1758.605      -2439.0875      703.45055      1116.7755     -3516.8137      1.9157045     -341.34552      268.40591     -671.47597     -84.739017      24755.029      29.144357      29.144357      29.144357      0.99606819    -939.32154     -4731.7274     -1033.9576    
    107000   107000         296.9114      -156.24338     -681.21855     -625.42688      1786.8887     -2412.3155      704.48469      1165.5112     -3544.1364      1.706981      -333.91344      266.92179     -672.89029     -85.675187      24484.531      29.037815      29.037815      29.037815      1.0070724      338.92127      272.65881     -1080.3102    
    108000   108000         293.331        40.116079     -647.90617     -662.21529      1765.3409     -2427.5562      735.03649      1090.7573     -3500.9406      1.3903952     -352.10776      269.69736     -671.38938     -85.768578      24457.871      29.027272      29.027272      29.027272      1.0081702      17.436034     -618.75463      721.66683    
    109000   109000         306.7638      -633.8423      -791.7533      -560.31411      1846.1829     -2406.4971      692.0909       1151.7669     -3512.6824      1.7330012     -339.67625      270.44479     -670.17402     -83.785152      25036.856      29.254539      29.254539      29.254539      0.98485595    -1417.068       564.453       -1048.9118    
    110000   110000         296.04411      952.29904     -277.60688     -624.77768      1781.6691     -2406.4468      673.16872      1155.2155     -3478.3938      2.1562657     -356.78509      268.32262     -670.13097     -83.917571      24997.349      29.239144      29.239144      29.239144      0.98641247     1063.2068     -1014.3308      2808.0211    
    111000   111000         316.9474       331.31562     -375.27556     -496.78912      1907.4704     -2404.2595      687.09779      1163.3832     -3531.6955      0.64461275    -316.8775       265.60903     -672.42116     -83.414185      25148.203      29.297843      29.297843      29.297843      0.9804954     -1377.2008      1045.6786      1325.469     
    112000   112000         292.54412     -590.0788      -851.31686     -634.63466      1760.6053     -2395.2399      742.1769       1100.6985     -3494.8752      0.4618216     -337.61149      265.41757     -671.50803     -83.312379      25178.933      29.309772      29.309772      29.309772      0.97929872     961.45064     -1184.9548     -1546.7322    
    113000   113000         299.24251     -951.3042      -966.83368     -616.96417      1800.9179     -2417.8821      669.07737      1138.092      -3501.4721      0.81647243    -322.81671      269.64818     -671.2273      -83.183286      25218.008      29.324926      29.324926      29.324926      0.97778129    -966.00542     -1929.1956      41.288389    
    114000   114000         297.292       -1008.0617     -952.865       -588.01705      1789.1792     -2377.1963      691.08387      1160.8152     -3495.1977      1.1071508     -331.24397      267.22377     -670.98467     -84.527489      24816.978      29.168648      29.168648      29.168648      0.99358178     296.80738     -627.70926     -2693.2833    
    115000   115000         300.43308      284.49059     -594.31579     -696.9015       1808.083      -2504.9845      647.20631      1077.017      -3512.6118      2.2090349     -317.25356      268.97314     -670.52467     -84.840612      24725.385      29.132719      29.132719      29.132719      0.9972624     -446.30601      1710.9449     -411.16711    
    116000   116000         294.93577     -1197.3725     -1054.7727     -615.02576      1774.9988     -2390.0246      721.39695      1113.6579     -3488.8174     -0.74961245    -333.07316      268.56544     -671.00478     -83.300804      25182.432      29.31113       29.31113       29.31113       0.97916266    -610.58428     -927.23853     -2054.2947    
    117000   117000         300.06455      704.70945     -447.84224     -701.77366      1805.8651     -2507.6388      677.57244      1093.7191     -3506.5737      1.357132      -367.33987      265.48295     -671.85684     -84.901704      24707.594      29.12573       29.12573       29.12573       0.99798051    -131.66769      289.1451       1956.6509    
    118000   118000         301.83844     -754.23013     -848.46249     -573.34944      1816.5408     -2389.8903      707.05317      1108.9056     -3480.5029      2.0810684     -325.41594      269.97554     -671.98689     -83.871697      25011.021      29.244474      29.244474      29.244474      0.98587325     1.4861816     -1553.1027     -711.07391    
    119000   119000         299.97998      919.47872     -291.86069     -621.49305      1805.3562     -2426.8492      670.60854      1141.2086     -3497.0821     -0.20297327    -337.24403      265.14692     -669.2842      -85.336453      24581.72       29.076185      29.076185      29.076185      1.0030908      1499.3086      706.07057      553.05694    
    120000   120000         295.8051      -2382.0284     -1513.2397     -644.62586      1780.2307     -2424.8566      717.94632      1079.9202     -3483.4594      1.1698273     -335.93209      267.22718     -671.72861     -83.896321      25003.68       29.241612      29.241612      29.241612      0.98616269    -3424.8565     -485.22357     -3236.0051    
    121000   121000         304.07983     -445.66111     -785.70099     -628.40656      1830.0301     -2458.4367      718.72203      1068.4559     -3479.0471      1.8542314     -365.88455      269.04558     -671.58281     -86.679049      24200.967      28.92528       28.92528       28.92528       1.0188724     -876.33464     -1010.4088      549.76007    
    122000   122000         301.51919     -692.53483     -787.51382     -536.70288      1814.6195     -2351.3224      727.41747      1154.3362     -3467.0445      2.2810557     -361.83886      265.24935     -671.7231      -84.472993      24832.988      29.174919      29.174919      29.174919      0.9929412     -3592.0707     -48.918739      1563.385     
    123000   123000         300.78969     -682.92772     -864.07278     -613.64562      1810.2292     -2423.8748      715.34378      1091.1125     -3499.058       0.21975577    -325.28108      266.57449     -672.78625     -83.428814      25143.793      29.296131      29.296131      29.296131      0.98066736    -877.24614      389.74258     -1561.2796    
    124000   124000         297.53626     -2713.3593     -1587.3832     -588.60735      1790.6492     -2379.2566      684.90537      1140.3683     -3474.4208      1.1773241     -326.15779      266.82783     -671.95679     -83.111671      25239.738      29.333347      29.333347      29.333347      0.97693949    -2257.4804     -2439.9406     -3442.6568    
    125000   125000         303.24313      1415.5404     -97.219687     -606.58338      1824.9946     -2431.578       686.84281      1143.9737     -3495.7243      1.289491      -359.66367      264.95693     -673.25294     -85.019205      24673.446      29.112306      29.112306      29.112306      0.99936167     4346.6216      299.96428     -399.96452    
    126000   126000         307.53095      131.55394     -502.23679     -550.07779      1850.7998     -2400.8776      699.4616       1128.4308     -3470.1454      0.498795      -356.34945      269.12293     -671.89694     -84.125248      24935.639      29.215063      29.215063      29.215063      0.98885362     989.49386     -1378.4518      783.61972    
    127000   127000         296.74404      1529.1783     -96.559097     -646.57255      1785.8815     -2432.454       720.82551      1090.5381     -3506.5668      2.0599399     -338.16441      271.34411     -672.4905      -85.05651       24662.625      29.108049      29.108049      29.108049      0.99980018     2518.0203      349.28445      1720.2301    
    128000   128000         295.13332     -1077.8383     -1016.7792     -622.07963      1776.1877     -2398.2674      745.49482      1104.6667     -3509.3386      0.66406169    -334.9539       267.97572     -672.77619     -83.542937      25109.445      29.282785      29.282785      29.282785      0.98200882     36.433996     -978.1251      -2291.8238    
    129000   129000         297.3748       1147.3927     -249.41451     -663.16357      1789.6775     -2452.8411      688.89403      1076.7047     -3478.367       2.399189      -337.20547      267.7395      -673.00605     -84.839441      24725.726      29.132853      29.132853      29.132853      0.99724863     2229.7118      899.4981       312.96809    
    130000   130000         307.55853     -1852.0442     -1301.536      -636.15394      1850.9658     -2487.1197      675.93218      1079.9783     -3478.3792      0.28768067    -361.71816      268.94962     -672.17012     -85.153599      24634.506      29.096982      29.096982      29.096982      1.0009414     -1798.9119     -3701.0094     -56.211249    
    131000   131000         299.05665      1137.2845     -159.59208     -569.80366      1799.7993     -2369.603       685.15978      1155.1575     -3494.4092      0.8317721     -310.50282      267.84809     -673.68814     -84.817208      24732.208      29.135398      29.135398      29.135398      0.9969873      2174.993       1201.0165      35.844219    
    132000   132000         295.8722       449.45287     -539.38196     -702.69894      1780.6345     -2483.3334      667.79523      1113.2722     -3516.6928      0.65393083    -341.64963      266.83874     -673.55108     -84.19292       24915.596      29.207234      29.207234      29.207234      0.98964908     228.5487      -153.72086      1273.5308    
    133000   133000         294.57856     -1294.588      -1070.5833     -601.05634      1772.849      -2373.9054      727.91014      1136.695      -3497.7696     -0.80754611    -328.48293      263.72584     -675.17627     -84.351685      24868.701      29.188898      29.188898      29.188898      0.99151528    -521.04832     -2606.876      -755.83963    
    134000   134000         308.07751      689.54662     -250.27368     -506.58924      1854.0892     -2360.6784      699.29802      1156.8197     -3471.0098      1.0934782     -333.64756      261.75594     -674.98815     -82.302195      25487.981      29.429202      29.429202      29.429202      0.96742447     2625.4226     -2546.2943      1989.5116    
    135000   135000         305.21644     -399.8472      -789.23351     -646.09892      1836.8705     -2482.9695      648.20294      1120.563      -3490.4228      1.7354381     -354.98696      266.09657     -674.15762     -85.461833      24545.657      29.061959      29.061959      29.061959      1.0045646      909.81663     -651.40735     -1457.9509    
    136000   136000         301.51552      568.00168     -362.29047     -571.69717      1814.5974     -2386.2946      697.63664      1114.4751     -3486.8331     -0.14829107    -304.5697       266.48297     -673.33819     -82.981598      25279.301      29.348665      29.348665      29.348665      0.97541053    -1008.7081      2166.6156      546.09756    
    137000   137000         284.91578     -1311.9167     -1185.8792     -709.18689      1714.696      -2423.8829      735.07494      1067.4313     -3506.784       1.4650293     -311.48971      264.64294     -674.22345     -84.195881      24914.72       29.206891      29.206891      29.206891      0.98968388    -1923.9981     -1392.5856     -619.16638    
    138000   138000         300.92688      749.88452     -324.40987     -598.39306      1811.0548     -2409.4479      647.63537      1157.5983     -3476.4656      0.60284929    -329.85537      265.0245      -673.98798     -83.732337      25052.648      29.260689      29.260689      29.260689      0.98423513    -192.49746     -197.34395      2639.495     
    139000   139000         293.49526     -1043.3384     -1015.8352     -629.53449      1766.3294     -2395.8639      700.2428       1126.0405     -3475.3818      1.438805      -342.14172      267.42668     -673.48925     -82.627078      25387.765      29.39058       29.39058       29.39058       0.97124332    -2223.2096     -810.94384     -95.86187     
    140000   140000         304.29505     -437.57367     -723.11142     -564.42908      1831.3254     -2395.7544      732.14677      1119.9764     -3509.3379      1.6143001     -329.4538       263.43704     -674.13727     -84.3617        24865.748      29.187743      29.187743      29.187743      0.991633       1104.1326     -2255.91       -160.94366    
    141000   141000         292.42586     -1506.1237     -1254.5377     -696.19693      1759.8935     -2456.0905      707.72691      1084.1875     -3509.958       0.58829135    -328.26884      263.74843     -674.11478     -82.524722      25419.253      29.402726      29.402726      29.402726      0.97004017    -2183.3448     -1775.8358     -559.19051    
    142000   142000         297.28424     -68.495587     -613.61256     -588.62124      1789.1325     -2377.7537      753.42869      1056.7484     -3435.8515      1.7231718     -345.67157      265.467       -673.59786     -83.848659      25017.893      29.247152      29.247152      29.247152      0.98560245    -235.00331     -2719.6779      2749.1945    
    143000   143000         295.9001      -20.962734     -609.18944     -601.46212      1780.8024     -2382.2645      706.30323      1111.1952     -3454.79        1.0649308     -330.69856      259.70704     -675.04633     -82.993118      25275.792      29.347307      29.347307      29.347307      0.97554596     362.46561     -735.23742      309.8836     
    144000   144000         291.597        1079.4266     -261.07378     -659.90099      1754.9052     -2414.8062      668.04263      1129.3699     -3493.4798      1.3766371     -304.72218      259.33796     -674.73138     -82.800141      25334.701      29.370089      29.370089      29.370089      0.97327759    -1363.8516      2603.2625      1998.8688    
    145000   145000         305.4265       2460.0129      347.52657     -549.28105      1838.1347     -2387.4157      696.53642      1098.6485     -3456.2111      2.9809597     -324.20671      267.02293     -672.18673     -83.919106      24996.892      29.238965      29.238965      29.238965      0.98643052     2189.0109      1393.2222      3797.8056    
    146000   146000         302.36668     -56.075949     -668.0656      -647.73441      1819.7199     -2467.4543      703.1375       1050.2637     -3473.6571      2.9933028     -341.09728      264.81913     -673.91369     -84.379426      24860.525      29.185699      29.185699      29.185699      0.99184136    -2718.439       1193.1208      1357.0903    
    147000   147000         303.6933      -535.67332     -807.65694     -610.88915      1827.7039     -2438.593       704.40931      1074.1719     -3502.9797      3.2858447     -305.77073      262.88367     -674.59329     -83.285378      25187.096      29.312939      29.312939      29.312939      0.97898133    -286.32823     -1780.275       459.5833     
    148000   148000         293.94949      907.02461     -358.87258     -695.585        1769.0631     -2464.6481      635.51485      1098.3827     -3476.8818      1.960695      -316.46302      265.66584     -672.8274      -82.410526      25454.477      29.416301      29.416301      29.416301      0.96869785    -50.971275      1318.5709      1453.4742    
    149000   149000         302.39439     -523.76849     -774.84335     -579.81384      1819.8867     -2399.7005      684.33111      1089.1526     -3447.2494      0.38121316    -316.99169      263.08368     -672.40808     -82.160259      25532.013      29.446139      29.446139      29.446139      0.96575608     1495.6676     -92.109318     -2974.8637    
    150000   150000         309.3323       501.44332     -346.76288     -533.92719      1861.6408     -2395.568       677.36453      1098.3514     -3438.858      -0.60777662    -323.87923      265.30692     -673.24577     -81.963698      25593.243      29.469659      29.469659      29.469659      0.9634456      1713.722       1135.7977     -1345.1898    
    151000   151000         304.43115      246.06317     -528.31511     -617.67195      1832.1444     -2449.8164      654.84924      1136.4118     -3501.2141      2.3093198     -333.81559      263.96542     -672.32249     -84.244507      24900.339      29.201271      29.201271      29.201271      0.99025546    -670.41919      445.05063      963.55807    
    152000   152000         301.38146     -767.38911     -883.03668     -600.0534       1813.7906     -2413.844       702.50105      1069.5705     -3428.6527      1.5144188     -347.68659      263.91235     -675.00302     -82.961694      25285.366      29.351012      29.351012      29.351012      0.97517657     422.3783      -488.66426     -2235.8814    
    153000   153000         297.8426      -387.99571     -824.28288     -681.83275      1792.4928     -2474.3256      693.06926      1081.2334     -3487.4914      1.6602158     -348.55732      260.37896     -674.61875     -83.327207      25174.452      29.308033      29.308033      29.308033      0.97947301     4.6896682     -964.884       -203.79281    
    154000   154000         304.12416     -1203.2509     -1040.1505     -601.66789      1830.2969     -2431.9648      689.0978       1110.8398     -3483.3905      2.1232547     -343.53069      265.92803     -673.03251     -83.951128      24987.357      29.235247      29.235247      29.235247      0.98680692    -2125.2632     -1416.1172     -68.37232     
    155000   155000         294.48042     -1212.3326     -1154.6633     -710.28596      1772.2584     -2482.5444      670.91968      1090.9205     -3483.6402      0.80394618    -353.28494      264.22058     -672.48395     -83.462734      25133.574      29.292161      29.292161      29.292161      0.98106607    -1847.6014     -572.27944     -1217.1168    
    156000   156000         306.11295      1338.3719     -182.44136     -669.29594      1842.2659     -2511.5619      653.09221      1072.244      -3500.0517      1.4096589     -334.10654      266.56036     -670.70994     -84.100831      24942.879      29.217891      29.217891      29.217891      0.9885666     -768.49942      2195.8131      2587.8019    
    157000   157000         300.93889     -878.62383     -932.76557     -609.87854      1811.1271     -2421.0057      709.09996      1098.4494     -3490.6784      3.0516621     -334.63723      266.37241     -672.66355     -83.248253      25198.328      29.317296      29.317296      29.317296      0.97854495     2174.2299     -284.86737     -4525.234     
    158000   158000         304.16259      1080.8286     -168.17517     -567.33097      1830.5282     -2397.8591      662.55107      1148.0057     -3492.4848      0.8210469     -311.07098      265.5356      -671.21675     -82.839435      25322.684      29.365444      29.365444      29.365444      0.97373948    -1256.5385      2747.8672      1751.157     
    159000   159000         298.90384     -1570.7508     -1213.2859     -633.79503      1798.8797     -2432.6747      693.99381      1110.8209     -3480.789       2.0042478     -351.53461      265.3         -672.47001     -82.924606      25296.675      29.355387      29.355387      29.355387      0.97474062    -1239.5493     -2662.7011     -810.0019     
    160000   160000         300.94718      1241.9362     -123.04498     -568.17861      1811.177      -2379.3556      684.99867      1156.0233     -3473.939       0.8084162     -342.81945      267.83409     -672.26161     -85.355522      24576.228      29.07402       29.07402       29.07402       1.0033149     -218.12417      3205.5572      738.37556    
    161000   161000         290.55309      888.08403     -345.03147     -670.34879      1748.6227     -2418.9715      674.55303      1148.8839     -3506.7851     -0.63084501    -337.53052      271.73419     -669.19616     -83.515988      25117.548      29.285934      29.285934      29.285934      0.98169204     712.0834       421.61316      1530.5555    
    162000   162000         299.75927     -2874.5199     -1623.6519     -569.57402      1804.0279     -2373.6019      720.58638      1132.3273     -3490.3595      1.0927096     -333.55676      266.82248     -670.51452     -83.428683      25143.832      29.296146      29.296146      29.296146      0.98066582    -6178.1838     -2715.4181      270.04216    
    163000   163000         300.64793     -1359.7119     -1174.6278     -677.18449      1809.376      -2486.5605      662.14176      1078.9107     -3488.0615      0.197678      -334.98932      265.11798     -669.87783     -83.623066      25085.385      29.273428      29.273428      29.273428      0.98295071    -1491.738      -853.4241      -1733.9735    
    164000   164000         300.49699      618.4999      -384.83698     -612.76494      1808.4677     -2421.2326      714.50401      1081.3745     -3479.6332      1.2837163     -335.81912      267.60303     -670.54551     -83.016569      25268.652      29.344544      29.344544      29.344544      0.97582161     2189.1705     -1989.0843      1655.4135    
    165000   165000         290.73884      1341.2922     -182.06552     -663.67196      1749.7406     -2413.4126      690.00573      1152.1388     -3499.1903      0.63467523    -353.23054      266.49237     -670.26325     -85.202797      24620.281      29.091381      29.091381      29.091381      1.0015197      844.64011      23.619615      3155.6168    
    166000   166000         301.50571     -397.98669     -703.88518     -558.01909      1814.5384     -2372.5575      690.34671      1175.4926     -3493.5393     -0.16038532    -339.40578      265.30576     -670.5971      -83.471256      25131.008      29.291164      29.291164      29.291164      0.98116624    -2643.4187     -1116.4327      2565.8913    
    167000   167000         296.41105      510.95373     -507.02883     -689.69464      1783.8774     -2473.5721      671.66686      1102.8811     -3498.8875      0.69656572    -345.13191      266.02093     -670.81809     -85.575029      24513.188      29.049139      29.049139      29.049139      1.0058951      568.66063      1061.4825     -97.28192     
    168000   168000         296.88381     -768.46263     -897.5229      -613.7232       1786.7226     -2400.4458      679.19178      1098.6549     -3448.8247      2.5192712     -329.8963       267.4504      -669.54115     -82.838755      25322.892      29.365525      29.365525      29.365525      0.97373148    -1681.5717     -3234.9582      2611.142     
    169000   169000         315.00728      1562.8511      58.77434      -510.59318      1895.7943     -2406.3875      674.91778      1157.0804     -3492.224      -0.15695373    -342.76527      267.12698     -670.36644     -83.974544      24980.389      29.23253       29.23253       29.23253       0.98708217     295.74814      1981.7356      2411.0695    
    170000   170000         291.66764     -2142.126      -1412.2839     -621.13757      1755.3304     -2376.4679      733.0853       1101.6741     -3478.2546      1.1784867     -331.63333      265.97506     -668.49294     -82.834445      25324.209      29.366034      29.366034      29.366034      0.97368083    -3755.6959     -450.2304      -2220.4516    
    171000   171000         307.0267       732.44283     -306.30307     -575.62692      1847.7651     -2423.3921      702.00913      1104.5837     -3489.8987      0.72717373    -333.93876      264.51272     -671.38733     -83.199683      25213.039      29.323         29.323         29.323         0.97797403     2549.9603     -2119.2053      1766.5735    
    172000   172000         297.99994     -2853.2677     -1652.9748     -614.33741      1793.4398     -2407.7772      711.22031      1128.7498     -3478.9946     -0.91499434    -365.14425      267.63084     -670.32429     -84.04296       24960.054      29.224595      29.224595      29.224595      0.98788636    -2370.6319     -2228.3794     -3960.7919    
    173000   173000         292.48473      997.56579     -283.70124     -649.12119      1760.2478     -2409.369       690.54846      1123.1322     -3495.6075      0.9238495     -329.21327      271.75171     -670.90448     -83.516454      25117.407      29.285879      29.285879      29.285879      0.98169753    -879.9069       2951.9697      920.63452    
    174000   174000         303.02687     -1075.4967     -996.89867     -604.09277      1823.6931     -2427.7859      687.7868       1120.8773     -3518.691       0.57947761    -315.74857      269.25889     -671.84877     -83.763311      25043.384      29.257082      29.257082      29.257082      0.98459922    -915.33019     -52.655438     -2258.5045    
    175000   175000         297.67672      969.37489     -258.36206     -610.96869      1791.4946     -2402.4633      677.15918      1122.1766     -3478.5049      2.2785009     -318.40142      264.33081     -671.50196     -84.105431      24941.514      29.217358      29.217358      29.217358      0.98862068    -3011.9406      2459.8648      3460.2005    
    176000   176000         304.47316      1691.7309      98.560589     -531.6305       1832.3973     -2364.0278      687.62265      1167.0155     -3495.6958      2.4290602     -318.46559      266.41897     -673.35264     -82.126209      25542.599      29.450208      29.450208      29.450208      0.96535584    -861.05557      3007.0139      2929.2344    
    177000   177000         301.10662     -1054.6939     -989.11899     -598.46164      1812.1366     -2410.5982      692.63204      1111.3462     -3471.2011      1.0440109     -340.13145      267.3432      -671.63108     -82.594887      25397.659      29.394398      29.394398      29.394398      0.97086494    -755.82764     -1675.9677     -732.28628    
    178000   178000         303.87127     -536.42229     -787.92993     -594.8511       1828.7749     -2423.626       699.87869      1089.1807     -3476.8404      1.8172876     -336.04075      269.05834     -670.67993     -84.995301      24680.386      29.115035      29.115035      29.115035      0.99908069    -2715.235      -71.28473       1177.2529    
    179000   179000         300.16266     -641.47312     -822.35232     -585.99419      1806.4556     -2392.4498      735.85521      1110.0173     -3475.0727     -0.67200909    -359.64835      267.67041     -670.59966     -83.029162      25264.82       29.34306       29.34306       29.34306       0.97596964     1373.8381     -1095.3351     -2202.9224    
    180000   180000         295.14875     -885.5854      -975.94066     -655.6959       1776.2806     -2431.9765      679.27301      1127.6997     -3498.2386      2.5931801     -340.10275      268.04014     -671.24113     -84.600156      24795.661      29.160294      29.160294      29.160294      0.99443594    -2025.6513      289.99088     -921.09574    
    181000   181000         301.88619      98.880484     -560.24773     -596.28577      1816.8282     -2413.114       674.88083      1106.6447     -3451.3788      2.7538625     -339.86463      265.04167     -671.19157     -83.940623      24990.484      29.236467      29.236467      29.236467      0.98668344    -1015.5773     -595.79322      1908.012     
    182000   182000         296.40414      461.26762     -465.73639     -634.86124      1783.8359     -2418.6971      662.83466      1111.867      -3445.3795      0.58826242    -348.47549      270.80836     -670.94041     -83.438848      25140.769      29.294956      29.294956      29.294956      0.9807853     -1079.2985      81.198232      2381.9032    
    183000   183000         309.76458      2104.2488      241.99314     -514.51935      1864.2424     -2378.7617      745.22611      1094.8929     -3482.4323      2.1998743     -333.28632      266.81861     -672.18052     -85.094941      24651.487      29.103667      29.103667      29.103667      1.0002519      1482.4476      2466.8658      2363.4331    
    184000   184000         306.77617     -551.82181     -772.14047     -570.61768      1846.2574     -2416.8751      701.54955      1108.9547     -3467.8667     -0.48994927    -352.4989       266.1264      -672.65009     -83.77172       25040.871      29.256103      29.256103      29.256103      0.98469806    -2535.0006     -1640.9353      2520.4705    
    185000   185000         289.74056      1805.1073     -45.392041     -701.375        1743.7327     -2445.1077      661.88157      1111.8308     -3476.982       0.65920958    -333.46287      263.85157     -672.88598     -84.184708      24918.027      29.208184      29.208184      29.208184      0.98955254     979.57416      3322.2375      1113.5102    
    186000   186000         296.95739      1034.0117     -239.85374     -619.24347      1787.1655     -2406.4089      734.37613      1064.809      -3464.7075      0.72635767    -337.55722      267.31375     -671.36949     -83.380139      25158.471      29.30183       29.30183       29.30183       0.98009521    -745.75276      308.57443      3539.2133    
    187000   187000         313.57474     -650.67593     -783.04162     -546.88818      1887.1729     -2434.0611      676.85176      1112.4465     -3463.094      -0.54447659    -354.00554      266.91744     -672.63274     -84.293332      24885.916      29.195632      29.195632      29.195632      0.99082937    -148.02127     -533.47402     -1270.5325    
    188000   188000         299.32808      215.78062     -541.61938     -619.38705      1801.4329     -2420.8199      707.63201      1082.2828     -3460.7589      0.68861349    -345.57611      266.90183     -671.99013     -84.886005      24712.163      29.127525      29.127525      29.127525      0.99779597     219.66495     -916.04201      1343.7189    
    189000   189000         301.97418     -428.22224     -718.51353     -565.49722      1817.3578     -2382.855       694.79918      1131.3662     -3442.1577     -0.53965458    -358.71399      264.82135     -672.43046     -85.615861      24501.498      29.04452       29.04452       29.04452       1.0063751      885.86576      98.733759     -2269.2662    
    190000   190000         302.74486      147.09265     -474.77218     -528.18212      1821.9959     -2350.178       745.4034       1112.3322     -3468.4397      0.71441957    -338.47418      269.48457     -671.19879     -84.254211      24897.471      29.20015       29.20015       29.20015       0.99036952     109.68637     -295.9598       627.55137    
    191000   191000         300.78365      216.8319      -499.74519     -578.3545       1810.1929     -2388.5474      698.37502      1117.8204     -3457.8611      2.0556289     -346.20093      267.5975      -670.3339      -84.386295      24858.501      29.184907      29.184907      29.184907      0.99192211     451.87199     -298.07924      496.70296    
    192000   192000         303.16281      465.71444     -474.23182     -642.69551      1824.5112     -2467.2067      643.78205      1101.4464     -3469.6633      1.3940789     -342.62949      269.63888     -671.1753      -84.573857      24803.372      29.163316      29.163316      29.163316      0.99412682    -63.793058      1006.3304      454.60595    
    193000   193000         296.38316      1199.1932     -225.01977     -657.00168      1783.7096     -2440.7112      663.04611      1122.2203     -3494.6986      0.0027408084  -324.30125      265.28232     -672.26283     -84.927111      24700.202      29.122825      29.122825      29.122825      0.99827915     1441.898       1758.1944      397.48722    
    194000   194000         298.93314      1333.4794     -106.4154      -595.15083      1799.056      -2394.2069      723.4414       1079.065      -3457.7637      0.62910918    -330.85174      263.62527     -672.35216     -83.470926      25131.107      29.291203      29.291203      29.291203      0.98116237     296.8451       2707.4966      996.09658    
    195000   195000         306.2309      -1011.2084     -898.77995     -531.24183      1842.9758     -2374.2176      749.75599      1148.3324     -3514.9843      2.3566682     -356.07261      267.32888     -670.93472     -84.170715      24922.169      29.209802      29.209802      29.209802      0.98938807    -132.5545      -2678.4829     -222.58774    
    196000   196000         305.23493     -747.08874     -826.81756     -553.07305      1836.9818     -2390.0548      695.92605      1111.6656     -3460.7267      1.2784671     -332.85242      265.98675     -671.3326      -83.492895      25124.495      29.288634      29.288634      29.288634      0.9814206     -1171.8453     -2780.9464      1711.5255    
    197000   197000         287.98814      604.68269     -439.33747     -659.29129      1733.1862     -2392.4775      685.17809      1096.0142     -3452.4316      0.72757159    -315.34135      265.69671     -672.32104     -84.104411      24941.817      29.217476      29.217476      29.217476      0.98860869     502.35269      3.6352737      1308.0601    
    198000   198000         301.85189     -663.74029     -879.19958     -634.56318      1816.6218     -2451.185       672.88993      1067.7844     -3447.29        0.45229808    -336.04186      264.42044     -673.4002      -83.004161      25272.429      29.346006      29.346006      29.346006      0.97567576    -639.8349      -329.83299     -1021.553     
    199000   199000         302.05741      57.340414     -579.61181     -600.20001      1817.8587     -2418.0587      708.11832      1112.0436     -3472.082       0.054808068   -360.27513      265.23017     -671.14848     -85.205012      24619.641      29.091129      29.091129      29.091129      1.0015457     -119.29216      256.88228      34.431124    
    200000   200000         300.9473      -232.70108     -657.455       -573.19563      1811.1777     -2384.3734      727.54076      1114.8401     -3458.5487      1.3184432     -361.87745      264.21862     -671.86519     -84.489532      24828.127      29.173015      29.173015      29.173015      0.99313561     414.37156      101.00711     -1213.4819    
    201000   201000         298.05796      1087.2222     -284.61849     -671.84802      1793.7889     -2465.637       689.93111      1060.2569     -3455.2854      1.4110531     -351.39445      262.28347     -672.83959     -85.895931      24421.608      29.012919      29.012919      29.012919      1.0096672      1987.3841      3106.5361     -1832.2536    
    202000   202000         300.77998      1165.0653     -194.81013     -613.67481      1810.1708     -2423.8456      696.42056      1106.6684     -3493.0417      1.9253413     -332.386        267.52523     -670.95737     -85.094066      24651.74       29.103766      29.103766      29.103766      1.0002416      503.33356      828.95019      2162.9121    
    203000   203000         309.47811      1074.5912     -143.7583      -534.17611      1862.5183     -2396.6944      692.19299      1117.1446     -3471.733       1.1647348     -331.94583      266.12862     -669.64648     -84.204717      24912.106      29.20587       29.20587       29.20587       0.98978774     1833.7827      1717.8404     -327.8494     
    204000   204000         295.99544     -1403.4593     -1164.1142     -665.43749      1781.3762     -2446.8137      693.31183      1072.2149     -3444.627       0.014645397   -365.91908      266.18116     -667.9902      -86.100066      24363.707      28.989972      28.989972      28.989972      1.0120667     -398.26217     -1909.5281     -1902.5875    
    205000   205000         300.33842     -693.1517      -868.31492     -612.5135       1807.5134     -2420.0269      692.0879       1093.9349     -3473.5078      2.0946237     -332.30576      267.74318     -670.07388     -82.898769      25304.559      29.358437      29.358437      29.358437      0.97443692    -2325.6899     -1592.3759      1838.6108    
    206000   206000         290.77693     -85.890284     -658.25043     -626.90851      1749.9698     -2376.8783      710.86303      1097.758      -3443.0969     -0.90260915    -335.4478       266.58759     -672.63965     -83.838037      25021.063      29.248387      29.248387      29.248387      0.98547758    -1345.6338      575.26068      512.70223    
    207000   207000         302.32008     -486.20933     -745.87877     -566.15255      1819.4395     -2385.592       719.57358      1112.9606     -3474.6548      1.435575      -339.39369      264.6414      -670.15472     -82.762686      25346.166      29.374519      29.374519      29.374519      0.97283733    -768.38181     -1057.2588      367.01266    
    208000   208000         308.17644     -1489.3564     -1053.0015     -514.63172      1854.6846     -2369.3163      702.29896      1141.0678     -3453.382       3.0774232     -354.69002      263.12461     -670.81305     -84.633188      24785.984      29.1565        29.1565        29.1565        0.99482422    -2074.6168      1151.7881     -3545.2404    
    209000   209000         301.09312     -1200.2992     -1097.7881     -667.00035      1812.0553     -2479.0557      704.47798      1062.5425     -3484.9379      0.17809714    -353.49101      262.92009     -670.74544     -85.241069      24609.227      29.087026      29.087026      29.087026      1.0019696     -1836.4938     -1900.6983      136.29464    
[...]
    458000   458000         301.59275      1875.9766      41.182605     -635.74193      1815.0622     -2450.8041      682.4027       1084.9562     -3508.9876      3.3249342     -309.34963      267.48699     -670.63771     -84.783219      24742.123      29.139291      29.139291      29.139291      0.99658776     1083.1275      2768.7786      1776.0236    
    459000   459000         308.34994      1218.9025     -179.53496     -620.80011      1855.7287     -2476.5288      667.21588      1070.3319     -3472.3416      1.8062657     -340.26663      267.18631     -670.46095     -84.506885      24823.028      29.171018      29.171018      29.171018      0.99333958    -475.30485      2858.8185      1273.1939    
    460000   460000         306.30208      1018.4097     -157.62173     -525.75757      1843.4042     -2369.1618      708.28216      1150.7189     -3503.1514      1.5168654     -321.43756      266.80363     -671.8944      -84.632502      24786.184      29.156579      29.156579      29.156579      0.99481616     624.79857      1131.6264      1298.8041    
    461000   461000         311.75851      1489.6682     -113.7235      -653.6433       1876.2423     -2529.8856      644.05456      1049.1593     -3472.3714      1.075266      -349.99257      269.24008     -671.05088     -84.407887      24852.142      29.182418      29.182418      29.182418      0.99217591     681.63572      1275.0016      2512.3671    
    462000   462000         304.06144      1849.7228      82.38195      -592.0871       1829.9194     -2422.0065      681.40165      1114.7071     -3478.2004      0.59811573    -332.98975      265.02268     -672.54594     -83.901048      25002.272      29.241063      29.241063      29.241063      0.98621825     396.73129      3745.9505      1406.4868    
    463000   463000         293.05455      262.94202     -650.72757     -745.42176      1763.6771     -2509.0989      654.7262       1105.5573     -3502.6843      1.2293966     -359.90411      266.07033     -674.09366     -84.949222      24693.773      29.120298      29.120298      29.120298      0.99853906     2099.3526     -224.25531     -1086.2712    
    464000   464000         295.36177     -785.74454     -947.38518     -662.79866      1777.5626     -2440.3613      702.95259      1109.2465     -3497.5537      2.1957751     -354.15068      267.52751     -670.57928     -84.46753       24834.594      29.175548      29.175548      29.175548      0.99287699    -1222.5508     -629.70257     -504.98029    
    465000   465000         304.24946     -1208.0497     -1040.6569     -601.19898      1831.051      -2432.25        673.74628      1131.869      -3481.0529      1.7945775     -351.41086      266.63411     -673.83021     -84.098898      24943.452      29.218114      29.218114      29.218114      0.98854389    -283.27957     -756.10993     -2584.7597    
    466000   466000         302.03859     -97.444416     -704.21776     -670.0662       1817.7454     -2487.8116      689.09627      1093.6791     -3495.4356      0.21094058    -371.31444      268.30411     -672.35206     -87.290922      24031.328      28.857537      28.857537      28.857537      1.0260647     -365.68161      1284.3003     -1210.9519    
    467000   467000         293.30824     -350.43218     -801.13769     -672.88777      1765.2039     -2438.0917      690.62124      1100.9589     -3492.8871      1.1101119     -337.27555      271.7286      -672.34789     -83.59295       25094.423      29.276944      29.276944      29.276944      0.9825967     -698.36915     -1949.0037      1596.0763    
    468000   468000         303.5307       1011.2042     -241.75968     -607.2255       1826.7253     -2433.9508      692.69347      1084.9783     -3464.2266      1.0249793     -344.41572      268.77354     -672.77871     -84.647638      24781.752      29.154841      29.154841      29.154841      0.99499407     2575.7043     -219.45915      677.36742    
    469000   469000         308.15718      948.72694     -201.8778      -542.18398      1854.5686     -2396.7526      712.03353      1141.2015     -3510.1471      2.6021056     -338.69418      266.79005     -670.53849     -85.289221      24595.333      29.081551      29.081551      29.081551      1.0025356      1108.2545     -1328.9734      3066.8997    
    470000   470000         301.75106      243.93168     -558.84303     -647.22855      1816.015      -2463.2435      670.49881      1099.5832     -3479.74        0.93702408    -350.7702       267.7995      -671.55186     -84.432534      24844.887      29.179578      29.179578      29.179578      0.99246563    -330.60198      660.3995       401.99751    
    471000   471000         304.75565     -1195.4239     -1044.9364     -618.10629      1834.0974     -2452.2037      713.35788      1100.8464     -3519.5931     -0.22616079    -345.56145      269.82916     -670.85637     -85.682008      24482.582      29.037044      29.037044      29.037044      1.0071526     -1238.2772     -3438.9932      1090.9988    
    472000   472000         298.59685      854.21588     -313.198       -621.36042      1797.0321     -2418.3925      697.81679      1143.2463     -3519.6208      2.795666      -337.9156       266.62038     -671.33533     -84.802902      24736.38       29.137037      29.137037      29.137037      0.99681913     2110.9401      51.999045      399.70849    
    473000   473000         300.84912     -12.831785     -633.69174     -629.05521      1810.5869     -2439.6421      703.87983      1093.6795     -3488.7631      0.71521435    -347.36294      268.07133     -669.86194     -84.66758       24775.915      29.152551      29.152551      29.152551      0.99522849    -976.52774     -259.71326      1197.7456    
    474000   474000         295.07375     -952.78678     -1033.798      -698.6337       1775.8292     -2474.4629      692.55046      1121.8429     -3516.4256      2.253974      -366.52765      265.30666     -673.46361     -86.968236      24120.494      28.893184      28.893184      28.893184      1.0222716     -1080.2462      244.85379     -2022.9679    
    475000   475000         301.74551     -49.52817      -628.0316      -610.13722      1815.9816     -2426.1188      727.29666      1095.1742     -3504.9235      2.1491969     -338.95083      265.4192      -672.28376     -84.675617      24773.564      29.151629      29.151629      29.151629      0.99532296    -802.01445      1474.1347     -820.70474    
    476000   476000         304.5163       1103.3165     -245.2457      -639.51347      1832.6569     -2472.1703      669.42963      1110.7088     -3483.6189      0.63700358    -362.07871      265.42445     -672.67257     -85.611401      24502.774      29.045025      29.045025      29.045025      1.0063227      2032.5083      419.80276      857.63861    
    477000   477000         295.1728       970.33807     -281.48806     -629.23327      1776.4253     -2405.6586      691.28266      1091.1793     -3426.4944      1.1589289     -361.26069      268.70387     -670.22837     -85.365948      24573.227      29.072836      29.072836      29.072836      1.0034375      2675.5312     -664.47624      899.95924    
    478000   478000         300.74713     -570.69817     -795.44359     -589.10215      1809.9731     -2399.0752      707.56281      1144.6899     -3474.9949     -0.8165398     -370.47419      265.73001     -670.77226     -84.614104      24791.574      29.158692      29.158692      29.158692      0.99459989    -1056.4316     -366.53568     -289.12722    
    479000   479000         313.29966      1653.8321     -6.0128449     -590.4149       1885.5174     -2475.9323      691.8997       1086.1561     -3489.9665      1.3569584     -358.54298      264.23717     -671.07277     -86.576978      24229.499      28.936643      28.936643      28.936643      1.0176726      1756.7464      1421.2586      1783.4912    
    480000   480000         295.30102     -664.59313     -856.37529     -613.84235      1777.197      -2391.0393      713.44889      1105.7582     -3480.2541      1.2750995     -325.54383      265.47371     -671.19735     -83.831622      25022.978      29.249133      29.249133      29.249133      0.98540218    -1655.9283      679.92848     -1017.7796    
    481000   481000         305.13933      174.30773     -488.26902     -551.01195      1836.4065     -2387.4184      685.79848      1199.6672     -3511.9447      2.4618579     -357.03209      265.59079     -671.9599      -84.991328      24681.539      29.115489      29.115489      29.115489      0.99903399    -1028.7298     -279.60529      1831.2582    
    482000   482000         288.44056     -3097.6537     -1772.4        -639.62159      1735.909      -2375.5306      705.09848      1132.5939     -3463.8404      0.46311736    -341.62562      265.87566     -674.09566     -83.658608      25074.728      29.269282      29.269282      29.269282      0.98336848    -4419.8015     -1309.7099     -3563.4497    
    483000   483000         302.21155     -72.488757     -592.82791     -566.61963      1818.7863     -2385.406       740.18199      1105.3493     -3473.8078      1.8925847     -353.19695      266.61385     -672.43894     -84.616462      24790.883      29.158421      29.158421      29.158421      0.99462762     833.70917     -692.62689     -358.54855    
    484000   484000         300.17        -1842.5293     -1256.9311     -575.13982      1806.4998     -2381.6396      706.3406       1124.8504     -3493.0039      0.70607623    -312.69613      264.81629     -672.65289     -82.677192      25372.376      29.38464       29.38464       29.38464       0.97183239    -2066.3168     -634.86208     -2826.409     
    485000   485000         295.06481      1176.7833     -250.72173     -673.53252      1775.7754     -2449.3079      690.42815      1088.4403     -3467.3508      0.54988003    -351.47699      263.32714     -673.22561     -85.147753      24636.197      29.097648      29.097648      29.097648      1.0008727      190.95645      2623.2392      716.15428    
    486000   486000         299.39298     -631.05931     -886.42257     -661.80874      1801.8234     -2463.6322      706.98756      1054.6536     -3465.0843      0.92484192    -353.17082      265.5849      -673.52804     -85.952088      24405.653      29.006599      29.006599      29.006599      1.0103273     -1507.7773      102.79336     -488.19398    
    487000   487000         300.96366      620.70341     -380.94403     -607.29196      1811.2762     -2418.5681      715.15551      1084.2683     -3478.0073      0.02458196    -342.66122      273.45832     -670.80631     -83.893897      25004.403      29.241894      29.241894      29.241894      0.9861342     -1311.8002      3781.2408     -607.33038    
    488000   488000         289.64193      589.27034     -439.07402     -652.57435      1743.1391     -2395.7135      719.11864      1093.4445     -3465.7256      1.0324389     -338.98847      267.29499     -671.89003     -84.438162      24843.232      29.17893       29.17893       29.17893       0.99253178     2573.7998     -1481.4888      675.49998    
    489000   489000         295.07077     -14.642137     -645.08913     -639.87999      1775.8113     -2415.6913      691.93221      1118.2929     -3483.5148      1.341529      -342.31878      269.7768      -671.20114     -85.992622      24394.149      29.002041      29.002041      29.002041      1.0108037      841.48362     -373.83838     -511.57165    
    490000   490000         297.48939     -1652.2774     -1251.9668     -653.02978      1790.3672     -2443.397       747.35492      1066.0522     -3515.3052      0.48167312    -339.80783      269.04021     -671.21293     -84.396524      24855.488      29.183728      29.183728      29.183728      0.99204234    -846.23454     -2546.1946     -1564.4031    
    491000   491000         295.06614     -2046.8643     -1372.1546     -635.499        1775.7834     -2411.2824      712.9594       1117.117      -3477.0357     -0.25825223    -362.14253      270.69507     -672.61741     -85.00556       24677.407      29.113863      29.113863      29.113863      0.99920129    -3786.0618     -1985.9066     -368.62459    
    492000   492000         294.55021      205.90267     -634.12356     -707.78502      1772.6784     -2480.4634      684.56175      1084.9462     -3500.5655      2.3340766     -347.50533      267.6465      -671.88115     -85.51541       24530.278      29.055888      29.055888      29.055888      1.0051943     -1287.7494      208.93882      1696.5186    
    493000   493000         298.97551      30.669609     -614.50179     -625.58632      1799.311      -2424.8973      750.60708      1067.3579     -3469.2706      2.049754      -370.34717      265.56662     -670.86086     -84.647471      24781.801      29.15486       29.15486       29.15486       0.99499211    -1038.8086     -237.78851      1368.606     
    494000   494000         295.74029      1886.7         19.087707     -654.73128      1779.8407     -2434.5719      684.91005      1119.4397     -3462.838       0.94867814    -373.70723      267.8922      -671.2173      -85.660845      24488.631      29.039435      29.039435      29.039435      1.0069039      2393.1357      1645.0807      1621.8836    
    495000   495000         304.00216      467.15917     -397.75387     -563.62695      1829.5627     -2393.1896      708.02953      1139.2771     -3502.7929      0.74533711    -330.73404      264.42831     -672.14291     -86.161191      24346.423      28.983115      28.983115      28.983115      1.0127852      1183.2959     -1103.1439      1321.3254    
    496000   496000         296.73308      1779.2285      32.004412     -609.76189      1785.8155     -2395.5774      663.05439      1173.1276     -3505.3827      2.8674077     -322.82221      265.69531     -672.11722     -84.815958      24732.572      29.135542      29.135542      29.135542      0.99697259    -612.45881      1635.3211      4314.8232    
    497000   497000         296.08005     -683.16681     -891.64101     -647.51092      1781.8854     -2429.3963      698.08968      1130.3967     -3509.506       1.8392732     -345.60196      266.74572     -671.3597      -85.610729      24502.966      29.045101      29.045101      29.045101      1.0063148     -1690.0304     -681.9485       322.47844    
    498000   498000         301.18202      727.47335     -305.90957     -569.68053      1812.5903     -2382.2709      675.59506      1179.6755     -3469.8049      1.4202057     -361.35046      264.1802      -671.98648     -84.37482       24861.882      29.18623       29.18623       29.18623       0.99178722     1070.289       2448.9432     -1336.8121    
    499000   499000         298.01543      1408.6505     -123.16674     -631.76011      1793.533      -2425.2931      704.51112      1118.2225     -3483.9622      2.2565637     -360.89066      266.31674     -671.74721     -84.733533      24756.631      29.144986      29.144986      29.144986      0.99600373     747.33669      2767.7544      710.86051    
    500000   500000         299.80982      521.56645     -404.19525     -588.52424      1804.3321     -2392.8564      697.08019      1149.6354     -3471.6359      2.330778      -366.88409      267.83813     -671.22087     -86.564287      24233.051      28.938057      28.938057      28.938057      1.0175234      1795.8948      102.69795     -333.89342    
Loop time of 2632.18 on 8 procs for 500000 steps with 2020 atoms

Performance: 16.412 ns/day, 1.462 hours/ns, 189.957 timesteps/s, 383.713 katom-step/s
98.1% CPU use with 8 MPI tasks x 1 OpenMP threads

MPI task timing breakdown:
Section |  min time  |  avg time  |  max time  |%varavg| %total
---------------------------------------------------------------
Pair    | 1038.4     | 1120.4     | 1203       | 195.6 | 42.57
Bond    | 107.78     | 110.92     | 116.8      |  27.7 |  4.21
Kspace  | 931.14     | 935.91     | 940.79     |  10.8 | 35.56
Neigh   | 38.436     | 39.265     | 39.777     |   6.3 |  1.49
Comm    | 52.346     | 53.788     | 55.251     |  17.3 |  2.04
Output  | 0.22285    | 0.25905    | 0.29405    |   4.7 |  0.01
Modify  | 274.75     | 359.75     | 444.69     | 347.8 | 13.67
Other   |            | 11.88      |            |       |  0.45

Nlocal:          252.5 ave         270 max         234 min
Histogram: 1 1 1 0 0 1 2 0 0 2
Nghost:        4098.38 ave        4177 max        4036 min
Histogram: 2 1 1 0 0 1 1 0 0 2
Neighs:              0 ave           0 max           0 min
Histogram: 8 0 0 0 0 0 0 0 0 0
FullNghs:       133820 ave      145264 max      122963 min
Histogram: 1 2 0 1 0 0 2 0 1 1

Total # of neighbors = 1070560
Ave neighs/atom = 529.9802
Ave special neighs/atom = 5.7524752
Neighbor list builds = 16695
Dangerous builds = 0
System init for write_data ...
PPPM initialization ...
  using 12-bit tables for long-range coulomb
  G vector (1/distance) = 0.289426
  grid = 18 18 18
  stencil order = 5
  estimated absolute RMS force accuracy = 0.00029192649
  estimated relative force accuracy = 8.7912794e-07
  using double precision KISS FFT
  3d grid and FFT values/proc = 4096 810


---------------------------------------------------------------------
    Device Time Info (average) for kspace: 
---------------------------------------------------------------------
CPU Poisson:     527.2317 s.
CPU Data Cast:   0.5069 s.
CPU Idle Time:   398.0170 s.
Max Mem / Proc:  0.81 MB.
---------------------------------------------------------------------


--------------------------------------------------------------------------
- Using acceleration for pppm:
-  with 8 proc(s) per device.
-  with 1 thread(s) per proc.
-  Horizontal vector operations: ENABLED
-  Shared memory system: No
--------------------------------------------------------------------------
Device 0: NVIDIA A800 40GB Active, 108 CUs, 36/39 GB, 1.4 GHZ (Mixed Precision)
--------------------------------------------------------------------------

Initializing Device and compiling on process 0...Done.
Initializing Device 0 on core 0...Done.
Initializing Device 0 on core 1...Done.
Initializing Device 0 on core 2...Done.
Initializing Device 0 on core 3...Done.
Initializing Device 0 on core 4...Done.
Initializing Device 0 on core 5...Done.
Initializing Device 0 on core 6...Done.
Initializing Device 0 on core 7...Done.



---------------------------------------------------------------------
      Device Time Info (average): 
---------------------------------------------------------------------
CPU Cast/Pack:   0.8604 s.
CPU Driver_Time: 7.4595 s.
CPU Idle_Time:   306.9975 s.
Average split:   1.0000.
Max Mem / Proc:  1.79 MB.
Prefetch mode:   None.
Vector width:    32.
Lanes / atom:    8.
Pair block:      256.
Neigh block:     128.
Neigh mode:      Host.
---------------------------------------------------------------------


--------------------------------------------------------------------------
- Using acceleration for lj/class2/coul/long:
-  with 8 proc(s) per device.
-  with 1 thread(s) per proc.
-  Horizontal vector operations: ENABLED
-  Shared memory system: No
--------------------------------------------------------------------------
Device 0: NVIDIA A800 40GB Active, 108 CUs, 36/39 GB, 1.4 GHZ (Mixed Precision)
--------------------------------------------------------------------------

Initializing Device and compiling on process 0...Done.
Initializing Device 0 on core 0...Done.
Initializing Device 0 on core 1...Done.
Initializing Device 0 on core 2...Done.
Initializing Device 0 on core 3...Done.
Initializing Device 0 on core 4...Done.
Initializing Device 0 on core 5...Done.
Initializing Device 0 on core 6...Done.
Initializing Device 0 on core 7...Done.

Generated 15 of 15 mixed pair_coeff terms from sixthpower/sixthpower mixing rule
STAGE COMPLETE: NPT T=300.0->300.0K P=1.0->1.0atm steps=500000
