LAMMPS data file via write_data, version 22 Jul 2025, timestep = 2000000, units = real

7520 atoms
6 atom types
7510 bonds
9 bond types
14000 angles
17 angle types
18910 dihedrals
22 dihedral types
8500 impropers
14 improper types

4.865777361385497 46.88522076859193 xlo xhi
4.865777361385497 46.88522076859193 ylo yhi
4.865777361385497 46.88522076859193 zlo zhi

Masses

1 12.01115
2 12.01115
3 12.01115
4 1.00797
5 15.9994
6 15.9994

Pair Coeffs # lj/class2/coul/long/kk

1 0.054 4.01
2 0.054 4.01
3 0.12 3.81
4 0.02 2.995
5 0.267 3.3
6 0.24 3.42

Bond Coeffs # class2/kk

1 1.53 299.67 -501.77 679.81
2 1.53 299.67 -501.77 679.81
3 1.5202 253.707 -423.037 396.9
4 1.101 345 -691.89 844.6
5 1.43 326.727 -608.531 689.033
6 1.5202 253.707 -423.037 396.9
7 1.101 345 -691.89 844.6
8 1.202 851.14 -1918.49 2160.77
9 1.3683 367.148 -794.791 1055.23

Angle Coeffs # class2/kk

1 112.67 39.516 -7.443 -9.5583
2 112.67 39.516 -7.443 -9.5583
3 108.53 51.9747 -9.4851 -10.9985
4 110.77 41.453 -10.604 5.129
5 112.67 39.516 -7.443 -9.5583
6 108.53 51.9747 -9.4851 -10.9985
7 110.77 41.453 -10.604 5.129
8 123.145 55.5431 -17.2123 0.1348
9 100.318 38.8631 -3.8323 -7.9802
10 113.288 61.2868 -28.9786 7.9929
11 110.77 41.453 -10.604 5.129
12 123.145 55.5431 -17.2123 0.1348
13 100.318 38.8631 -3.8323 -7.9802
14 107.734 40.6099 -28.8121 0
15 107.66 39.641 -12.921 -2.4318
16 107.688 65.4801 -10.3498 5.8866
17 120.797 95.3446 -32.2869 6.3778

BondBond Coeffs

1 0 1.53 1.53
2 0 1.53 1.53
3 5.4199 1.53 1.5202
4 3.3872 1.53 1.101
5 0 1.53 1.53
6 5.4199 1.53 1.5202
7 3.3872 1.53 1.101
8 46.0685 1.5202 1.202
9 19.1069 1.5202 1.3683
10 45.4503 1.43 1.3683
11 3.3872 1.53 1.101
12 46.0685 1.5202 1.202
13 19.1069 1.5202 1.3683
14 0.7115 1.5202 1.101
15 5.3316 1.101 1.101
16 5.6454 1.101 1.43
17 121.488 1.202 1.3683

BondAngle Coeffs

1 8.016 8.016 1.53 1.53
2 8.016 8.016 1.53 1.53
3 18.1678 15.8758 1.53 1.5202
4 20.754 11.421 1.53 1.101
5 8.016 8.016 1.53 1.53
6 18.1678 15.8758 1.53 1.5202
7 20.754 11.421 1.53 1.101
8 34.9982 37.1298 1.5202 1.202
9 1.3435 4.6978 1.5202 1.3683
10 41.9116 46.4608 1.43 1.3683
11 20.754 11.421 1.53 1.101
12 34.9982 37.1298 1.5202 1.202
13 1.3435 4.6978 1.5202 1.3683
14 12.4632 9.1765 1.5202 1.101
15 18.103 18.103 1.101 1.101
16 8.6864 57.4975 1.101 1.43
17 76.2614 71.8761 1.202 1.3683

Dihedral Coeffs # class2/kk

1 0 0 0.0514 0 -0.143 0
2 0 0 0.0514 0 -0.143 0
3 0.0972 0 0.0722 0 -0.2581 0
4 0 0 0.0316 0 -0.1681 0
5 0 0 0.0514 0 -0.143 0
6 0.0972 0 0.0722 0 -0.2581 0
7 0 0 0.0316 0 -0.1681 0
8 0.0442 0 0.0292 0 0.0562 0
9 1.8341 0 2.0603 0 -0.0195 0
10 0 0 0.0316 0 -0.1681 0
11 0.0442 0 0.0292 0 0.0562 0
12 1.8341 0 2.0603 0 -0.0195 0
13 -2.5594 0 2.2013 0 0.0325 0
14 -2.5594 0 2.2013 0 0.0325 0
15 0 0 2.2089 0 0 0
16 0.0972 0 0.0722 0 -0.2581 0
17 -0.0228 0 0.028 0 -0.1863 0
18 -0.0228 0 0.028 0 -0.1863 0
19 0 0 0 0 -0.1932 0
20 -0.1432 0 0.0617 0 -0.1083 0
21 -0.1804 0 0.0012 0 0.0371 0
22 -0.6359 0 1.4807 0 -0.0438 0

AngleAngleTorsion Coeffs

1 -22.045 112.67 112.67
2 -22.045 112.67 112.67
3 -0.3801 112.67 108.53
4 -16.164 112.67 110.77
5 -22.045 112.67 112.67
6 -0.3801 112.67 108.53
7 -16.164 112.67 110.77
8 -8.019 108.53 123.145
9 0 108.53 100.318
10 -16.164 112.67 110.77
11 -8.019 108.53 123.145
12 0 108.53 100.318
13 0 100.318 113.288
14 0 113.288 100.318
15 0 113.288 120.797
16 -0.3801 112.67 108.53
17 -5.3624 108.53 110.77
18 -5.3624 108.53 110.77
19 0 113.288 107.688
20 -12.564 110.77 110.77
21 -15.3496 107.734 123.145
22 0 107.734 100.318

EndBondTorsion Coeffs

1 -0.0732 0 0 -0.0732 0 0 1.53 1.53
2 -0.0732 0 0 -0.0732 0 0 1.53 1.53
3 0.0062 -0.0002 0.0036 0.0055 0.006 -0.0009 1.53 1.5202
4 0.2486 0.2422 -0.0925 0.0814 0.0591 0.2219 1.53 1.101
5 -0.0732 0 0 -0.0732 0 0 1.53 1.53
6 0.0062 -0.0002 0.0036 0.0055 0.006 -0.0009 1.53 1.5202
7 0.2486 0.2422 -0.0925 0.0814 0.0591 0.2219 1.53 1.101
8 0.2654 0.0503 0.1046 -0.281 0.0816 -0.1522 1.53 1.202
9 0 0 0 0 0 0 1.53 1.3683
10 0.2486 0.2422 -0.0925 0.0814 0.0591 0.2219 1.53 1.101
11 0.2654 0.0503 0.1046 -0.281 0.0816 -0.1522 1.53 1.202
12 0 0 0 0 0 0 1.53 1.3683
13 0 0 0 0 0 0 1.5202 1.43
14 0 0 0 0 0 0 1.43 1.5202
15 0 0 0 0 0 0 1.43 1.202
16 0.0062 -0.0002 0.0036 0.0055 0.006 -0.0009 1.53 1.5202
17 -0.0204 0.3628 -0.4426 -0.0097 -0.0315 -0.0755 1.5202 1.101
18 -0.0204 0.3628 -0.4426 -0.0097 -0.0315 -0.0755 1.5202 1.101
19 0 0 0 0 0 0 1.3683 1.101
20 0.213 0.312 0.0777 0.213 0.312 0.0777 1.101 1.101
21 1.2143 0.2831 0.3916 -0.2298 0.0354 0.3853 1.101 1.202
22 0 0 0 0 0 0 1.101 1.3683

MiddleBondTorsion Coeffs

1 -17.787 -7.1877 0 1.53
2 -17.787 -7.1877 0 1.53
3 -1.5945 0.2267 -0.6911 1.53
4 -14.879 -3.6581 -0.3138 1.53
5 -17.787 -7.1877 0 1.53
6 -1.5945 0.2267 -0.6911 1.53
7 -14.879 -3.6581 -0.3138 1.53
8 0.3388 -0.1096 0.1219 1.5202
9 -17.328 -5.79 -3.2114 1.5202
10 -14.879 -3.6581 -0.3138 1.53
11 0.3388 -0.1096 0.1219 1.5202
12 -17.328 -5.79 -3.2114 1.5202
13 1.3445 3.5515 -4.9202 1.3683
14 1.3445 3.5515 -4.9202 1.3683
15 4.26 0 0 1.3683
16 -1.5945 0.2267 -0.6911 1.53
17 -3.5039 1.2458 -0.761 1.53
18 -3.5039 1.2458 -0.761 1.53
19 0 0 0 1.43
20 -14.261 -0.5322 -0.4864 1.53
21 0.2359 0.9139 0.9594 1.5202
22 -13.7686 -2.5959 1.1934 1.5202

BondBond13 Coeffs

1 0 1.53 1.53
2 0 1.53 1.53
3 0 1.53 1.5202
4 0 1.53 1.101
5 0 1.53 1.53
6 0 1.53 1.5202
7 0 1.53 1.101
8 0 1.53 1.202
9 0 1.53 1.3683
10 0 1.53 1.101
11 0 1.53 1.202
12 0 1.53 1.3683
13 0 1.5202 1.43
14 0 1.43 1.5202
15 0 1.43 1.202
16 0 1.53 1.5202
17 0 1.5202 1.101
18 0 1.5202 1.101
19 0 1.3683 1.101
20 0 1.101 1.101
21 0 1.101 1.202
22 0 1.101 1.3683

AngleTorsion Coeffs

1 0.3886 -0.3139 0.1389 0.3886 -0.3139 0.1389 112.67 112.67
2 0.3886 -0.3139 0.1389 0.3886 -0.3139 0.1389 112.67 112.67
3 -0.2607 0.3203 -0.2283 0.0515 -0.0674 -0.0474 112.67 108.53
4 -0.2454 0 -0.1136 0.3113 0.4516 -0.1988 112.67 110.77
5 0.3886 -0.3139 0.1389 0.3886 -0.3139 0.1389 112.67 112.67
6 -0.2607 0.3203 -0.2283 0.0515 -0.0674 -0.0474 112.67 108.53
7 -0.2454 0 -0.1136 0.3113 0.4516 -0.1988 112.67 110.77
8 0.0885 -1.3703 -0.5452 0.675 0.5965 0.6725 108.53 123.145
9 0 0 0 0 0 0 108.53 100.318
10 -0.2454 0 -0.1136 0.3113 0.4516 -0.1988 112.67 110.77
11 0.0885 -1.3703 -0.5452 0.675 0.5965 0.6725 108.53 123.145
12 0 0 0 0 0 0 108.53 100.318
13 0 0 0 0 0 0 100.318 113.288
14 0 0 0 0 0 0 113.288 100.318
15 0 0 0 0 0 0 113.288 120.797
16 -0.2607 0.3203 -0.2283 0.0515 -0.0674 -0.0474 112.67 108.53
17 -0.7466 -0.9448 -0.6321 0.0162 1.4211 -1.4092 108.53 110.77
18 -0.7466 -0.9448 -0.6321 0.0162 1.4211 -1.4092 108.53 110.77
19 0 0 0 0 0 0 113.288 107.688
20 -0.8085 0.5569 -0.2466 -0.8085 0.5569 -0.2466 110.77 110.77
21 9.1299 -0.4847 0.3582 -1.4946 0.7308 -0.2083 107.734 123.145
22 0 0 0 0 0 0 107.734 100.318

Improper Coeffs # class2/kk

1 0 0
2 0 0
3 0 0
4 0 0
5 0 0
6 0 0
7 0 0
8 0 0
9 0 0
10 0 0
11 0 0
12 0 0
13 46.9264 0
14 46.9264 0

AngleAngle Coeffs

1 -0.1729 -0.1729 -0.1729 112.67 112.67 112.67
2 0 0 0 112.67 108.53 108.53
3 -1.3199 -1.3199 0.1184 112.67 110.77 110.77
4 -1.3199 -1.3199 0.1184 112.67 110.77 110.77
5 0.2738 -0.4825 0.2738 110.77 110.77 107.66
6 0.2738 -0.4825 0.2738 110.77 110.77 107.66
7 -0.3157 -0.3157 -0.3157 107.66 107.66 107.66
8 0 0 0 107.66 107.688 107.688
9 0 0 0 112.67 108.53 108.53
10 -1.3199 -1.3199 0.1184 112.67 110.77 110.77
11 2.0403 -1.8202 1.0827 108.53 110.77 107.734
12 1.0827 -1.8202 2.0403 110.77 108.53 107.734
13 0 0 0 100.318 123.145 120.797
14 0 0 0 100.318 123.145 120.797

Atoms # full/kk

402 1 1 0.066 9.011361497831025 7.53095528947407 5.812051392400228 0 1 0
810 2 4 0.053 9.290695902580467 7.107517264169676 11.19542729711422 1 0 1
598 1 4 0.053 5.9404083392057725 7.182548207295261 7.901371452194459 0 1 0
808 2 6 -0.396 10.064730687550238 6.190605562946774 9.387101173141787 1 0 1
397 1 4 0.053 6.877529509804236 10.498203227041026 6.433265063099873 0 1 0
396 1 4 0.053 7.073372529921642 10.672154168002265 8.173458436198214 0 1 0
600 1 4 0.053 5.234406297053159 6.175652024624495 6.715375984776305 0 1 0
812 2 4 0.053 8.356145781149133 7.377407298162395 9.67559602909712 1 0 1
381 1 4 0.053 8.614397611163207 10.156109998778224 9.879727332887331 0 1 0
380 1 1 -0.159 9.590507995763662 10.59201359722469 9.96014744489623 0 1 0
403 1 4 0.053 9.963853290658783 7.506503207441147 5.179925852055575 0 1 0
399 1 3 0.702 9.425390159151217 9.705260336545035 6.756988132096127 0 1 0
404 1 4 0.053 9.1092982740488 6.964031284700088 6.811816084199242 0 1 0
400 1 5 -0.531 10.458296566463847 9.315063152798018 7.212421197437257 0 1 0
401 1 6 -0.396 8.605607578592272 8.857002660289588 6.1092013169999495 0 1 0
809 2 1 0.066 8.990902048164493 6.622929865091848 10.18577638879756 1 0 1
405 1 4 0.053 8.193509912726846 7.035603378177572 5.182369049134511 0 1 0
382 1 4 0.053 10.250648656484888 9.939998026935523 9.399566250731729 0 1 0
383 1 4 0.053 10.00497373221172 10.61447353840532 10.9927110718505 0 1 0
628 1 4 0.053 5.789386155681559 5.9532414855480695 10.135184761459358 0 1 0
395 1 1 -0.159 7.336966215079101 11.119939108346694 7.1851777400675125 0 1 0
394 1 1 0 8.836270545345899 11.175991115133721 6.924723607106379 0 1 0
806 2 3 0.702 11.010442134661378 5.3064592961144825 9.974902230242716 1 0 1
815 2 4 0.053 11.764284323104203 7.010744162623827 7.959821711393282 1 0 1
814 2 4 0.053 12.529143833668316 7.6810470993553785 9.374133463515285 1 0 1
801 2 1 0 12.485768774192017 5.418568786846903 9.2092954299243 1 0 1
829 2 4 0.053 13.591305918212836 5.709173780488917 6.142335447213072 1 0 1
830 2 4 0.053 12.403403257840196 6.981648088557241 5.910657781206931 1 0 1
822 2 5 -0.531 15.299692343140714 5.414612180779979 7.73518131002112 1 0 1
805 2 4 0.053 13.552024713064075 6.103297591175538 10.88091056921318 1 0 1
818 2 4 0.053 14.813370356991797 9.223216430727266 7.0441696366862425 1 0 1
819 2 4 0.053 13.064195443462989 9.358047909910894 7.2825110088246285 1 0 1
820 2 4 0.053 14.014536664499705 9.165820114601818 8.768073794262703 1 0 1
817 2 1 -0.159 13.902526997960319 8.883587737059944 7.682182684752737 1 0 1
816 2 1 0 13.799711228515308 7.290482960598016 7.530740380810142 1 0 1
813 2 1 -0.106 12.633558362585113 6.890828314581439 8.528399202816145 1 0 1
821 2 3 0.702 15.11445505851262 6.59263653321382 7.904975509908192 1 0 1
823 2 6 -0.396 16.068559457978594 7.429939135112861 8.368820432324991 1 0 1
828 2 1 -0.106 13.497589135771808 6.82978170134848 6.072332065771359 1 0 1
837 2 5 -0.531 16.161250341748104 6.12746360319764 5.237031147514387 1 0 1
833 2 4 0.053 14.54487906135525 9.674198059256485 5.155951834052902 1 0 1
834 2 4 0.053 12.854556778564831 9.085978105583475 46.85583060109769 1 0 0
836 2 3 0.702 15.690967946285262 7.156912881736179 46.8781136375697 1 0 0
831 2 1 0 14.198062389437945 7.468705422419086 46.78469327033194 1 0 0
838 2 6 -0.396 16.471879436451406 8.126734573332094 46.35533025986871 1 0 0
315 1 4 0.053 16.69390012309143 10.416361701119634 10.047013453049153 0 1 0
824 2 1 0.066 17.420680591977302 7.0104846885567556 8.246669217644325 1 0 1
284 1 4 0.053 19.709447668522817 7.96317807489303 10.559232615795617 0 1 0
842 2 4 0.053 18.123806955020576 6.834292863763369 46.13720815028539 1 0 0
826 2 4 0.053 17.69284474793262 6.548661036560873 9.182412506458292 1 0 1
827 2 4 0.053 17.9820429034156 8.008343722943604 8.049214142423645 1 0 1
282 1 1 0.066 20.309761399241637 8.86360624540805 10.67433776088747 0 1 0
825 2 4 0.053 17.529182288859303 6.351552435413917 7.394778298125942 1 0 1
277 1 4 0.053 21.119240290742216 9.7675232066529 5.683018732923786 0 1 0
275 1 1 -0.159 20.968098854953624 9.487731848905245 6.699706810795971 0 1 0
4502 6 4 0.053 18.56059007264735 5.060767027444935 10.622868001930991 -1 1 1
276 1 4 0.053 19.97652929774494 9.919293279001831 7.062917012139054 0 1 0
281 1 6 -0.396 20.736708662065304 9.205229688899433 9.31746017793871 0 1 0
279 1 3 0.702 21.69890644775596 10.16094083147371 9.09145166734964 0 1 0
274 1 1 0 22.063277164551174 10.264999735256257 7.527217198801688 0 1 0
314 1 4 0.053 16.610115419832034 10.780589620345616 8.378636808126936 0 1 0
278 1 4 0.053 21.138429928963546 8.37029980357161 6.775015477834051 0 1 0
4490 6 5 -0.531 20.942191562048855 5.503852083801919 8.311559322109671 -1 1 1
4493 6 4 0.053 21.02237178895459 5.361184648802523 5.669943753815729 -1 1 1
4495 6 4 0.053 19.195240088707806 5.6056538353777245 6.050067810079882 -1 1 1
4492 6 1 0.066 20.05705913036634 4.882573559873036 5.869623048441408 -1 1 1
280 1 5 -0.531 22.233106782556227 10.834913488162236 9.953340981342196 0 1 0
839 2 1 0.066 17.855664194549696 7.911653177668619 46.52702426322509 1 0 0
283 1 4 0.053 21.255708670479937 8.582106048566322 11.163473543593632 0 1 0
265 1 5 -0.531 23.440863071610558 7.834720451283657 46.80500216994855 0 1 -1
272 1 4 0.053 23.086871856333726 8.341886066765495 7.577428857280989 0 1 0
235 1 5 -0.531 25.975718333399247 5.284699940028767 6.019529324354484 0 1 0
271 1 1 -0.106 23.365389615972948 9.407602149520685 7.464519250357848 0 1 0
231 1 4 0.053 23.594291662962124 6.669295539550992 8.736192506463626 0 1 0
241 1 1 -0.106 26.749193603768553 6.715419921790046 8.321891419273959 0 1 0
264 1 3 0.702 23.71185755748179 8.983300818140437 5.035549774661736 0 1 0
248 1 4 0.053 26.53807897732217 8.596894882459672 10.18498480245167 0 1 0
258 1 4 0.053 26.068436257492493 8.068833473962904 5.796982626063041 0 1 0
256 1 1 -0.106 25.40678945678231 8.257664301578858 6.687012666132434 0 1 0
257 1 4 0.053 24.72134923965487 7.379783993595705 6.605048669924367 0 1 0
233 1 4 0.053 23.591858363280064 4.978080266053964 8.912237084550487 0 1 0
232 1 4 0.053 24.288723222335488 5.993544577005647 10.177842306821143 0 1 0
244 1 1 0 26.298185862432653 8.14316427827029 7.963511440477536 0 1 0
228 1 4 0.053 26.102134042909327 4.905406321586157 10.413235524706678 0 1 0
243 1 4 0.053 27.074592783615934 6.820352969440308 9.32859421612704 0 1 0
259 1 1 0 24.484056018920164 9.468961199568858 6.351102967878084 0 1 0
234 1 3 0.702 25.464979178496176 4.912195903624324 7.062611539278463 0 1 0
273 1 4 0.053 23.907125084487554 9.704105307366797 8.361324052773842 0 1 0
245 1 1 -0.159 25.853707511514457 8.896220873759106 9.395364624995805 0 1 0
246 1 4 0.053 24.90117917641329 8.486016447084342 9.792637760354742 0 1 0
242 1 4 0.053 27.470405086186037 6.385201563592398 7.594507496842947 0 1 0
247 1 4 0.053 25.842324310138842 9.984364630994417 9.431331128701158 0 1 0
250 1 5 -0.531 27.903530048045347 9.878421134975309 6.875935272286469 0 1 0
249 1 3 0.702 27.718758939309147 8.941831123247468 7.597323834365413 0 1 0
230 1 1 -0.159 24.240961277896233 5.805966727916163 9.107992759013761 0 1 0
229 1 1 0 25.689834215159223 5.512330474157964 8.432033375023519 0 1 0
251 1 6 -0.396 28.804825095122364 8.35827212244467 8.197365522777002 0 1 0
261 1 4 0.053 26.199597856106386 10.713447926936418 5.717216314725927 0 1 0
260 1 1 -0.159 25.16381343679543 10.839297115730144 6.139108560346452 0 1 0
6542 9 1 -0.106 34.325323905603625 10.135034243181478 7.547132024371001 0 0 0
6543 9 4 0.053 34.01185703438797 10.215817591008083 6.48783032260119 0 0 0
223 1 4 0.053 31.350549564214838 46.30537269976303 7.640280771309766 0 0 0
220 1 5 -0.531 28.91870265633004 5.399676837856956 10.240545106144832 0 1 0
6556 9 4 0.053 32.80074287345201 7.53056723469902 46.38095426929982 0 0 -1
225 1 4 0.053 31.29237826138812 46.20878270659923 9.462390288412701 0 0 0
222 1 1 0.066 30.876924545514324 46.607235518585775 8.584710394820263 0 0 0
6552 9 6 -0.396 34.32656928938315 7.47423878631357 5.727170106275711 0 0 0
6554 9 4 0.053 32.87376082003635 6.03975132373453 5.454367477122272 0 0 0
224 1 4 0.053 30.93556051178527 5.694258213988549 8.51278643019694 0 1 0
6544 9 4 0.053 33.46552753392085 10.065351184623582 8.191287413271347 0 0 0
253 1 4 0.053 30.097703549872794 9.931719147808483 8.443226564652019 0 1 0
255 1 4 0.053 30.714704766442797 8.281273868859461 8.912572065110549 0 1 0
254 1 4 0.053 30.654172897209666 8.72574105287907 7.277705068971752 0 1 0
252 1 1 0.066 30.102698247655685 8.856957207117043 8.202136915149932 0 1 0
6551 9 5 -0.531 32.96058375156915 7.587839387521031 7.592593328361871 0 0 0
6550 9 3 0.702 33.94745823955421 7.8692964799800755 6.96790208126117 0 0 0
6558 9 4 0.053 34.57352812577165 7.818869459030573 9.57991516537795 0 0 0
6553 9 1 0.066 33.4303298349044 6.788195653555945 46.87160160309061 0 0 -1
6545 9 1 0 35.124982453576024 8.767036264796895 7.646275808371105 0 0 0
2338 4 4 0.053 39.47271957587062 4.9630479179416875 5.010396699832236 0 1 1
6548 9 4 0.053 36.08107312448236 8.920285358775589 5.629584268551522 0 0 0
6546 9 1 -0.159 36.376123729212516 8.770250765410985 6.6682356979754625 0 0 0
6561 9 1 -0.159 38.030046063340414 7.8336466013945465 9.121834597540756 0 0 0
580 1 5 -0.531 40.57213502956614 9.436326071038273 8.09117462727252 -1 1 0
2348 4 4 0.053 36.283949240265585 5.050513684545284 46.52643077024924 0 1 0
2336 4 1 -0.159 38.82373988681308 5.669353390506325 46.61834638900258 0 1 0
583 1 4 0.053 40.07736839466926 8.331949588852583 5.678759387177083 -1 1 0
584 1 4 0.053 39.45461617438547 9.9996345547222 5.877463417559132 -1 1 0
582 1 1 0.066 40.23940886144094 9.368503169682674 5.376984044585271 -1 1 0
6579 9 4 0.053 38.82074113088692 5.277248914199232 10.483799246853307 0 0 0
6566 9 5 -0.531 37.209984790813444 5.3729882208051665 7.848131537666539 0 0 0
6547 9 4 0.053 37.17526456204334 9.469331667889648 6.894006992856602 0 0 0
6564 9 4 0.053 38.8345798609729 7.15211546046474 9.427348102036463 0 0 0
6549 9 4 0.053 36.8582423894601 7.750551198075869 6.703456243145615 0 0 0
6567 9 6 -0.396 35.156717300625715 5.471764946860523 8.819294167330924 0 0 0
6565 9 3 0.702 36.40078427313863 5.916534934388026 8.534318502677536 0 0 0
6563 9 4 0.053 38.057610360986224 8.699397122603962 9.769499930811556 0 0 0
2339 4 4 0.053 38.12997069504417 5.971394659701724 5.440209897568636 0 1 1
6560 9 1 0 36.605955375670995 7.1608876000538855 9.366739578805708 0 0 0
6557 9 1 -0.106 35.48480376252097 8.231431534201185 9.08418226908934 0 0 0
6559 9 4 0.053 35.86354028437341 9.054194384834734 9.735452779964607 0 0 0
6562 9 4 0.053 38.295051355636964 8.165894014833237 8.075009939990625 0 0 0
597 1 1 0.066 5.064304163382139 7.093375762853372 7.241125881147838 0 1 0
599 1 4 0.053 5.078905443571889 7.985968300267979 6.515024467888432 0 1 0
571 1 1 -0.106 43.26460374552887 10.612859730718698 9.06672131531753 -1 1 0
572 1 4 0.053 44.20940653206682 10.368149308993857 9.575254974708505 -1 1 0
577 1 4 0.053 45.156315492345236 9.658469148585283 7.106138415938468 -1 1 0
573 1 4 0.053 42.45944312911953 10.427937259348806 9.824374352313683 -1 1 0
594 1 3 0.702 44.74908623017927 6.6802062954582535 7.383162534974714 -1 1 0
581 1 6 -0.396 41.59548080046941 9.595374729625945 6.001523495369819 -1 1 0
590 1 1 -0.159 42.1045843306257 6.44445061840605 7.619952879651382 -1 1 0
586 1 1 -0.106 43.278970457442064 8.200220505657919 8.917483377922952 -1 1 0
578 1 4 0.053 43.93917994261236 10.550700056118412 6.316201635367061 -1 1 0
587 1 4 0.053 44.07924469067133 8.374297249278259 9.67041549477324 -1 1 0
592 1 4 0.053 41.96915514162773 7.009742399152947 6.693445158828444 -1 1 0
591 1 4 0.053 42.05622422814246 5.476898361614796 7.287264351692934 -1 1 0
579 1 3 0.702 41.6225783743337 9.502334638741715 7.401600815518375 -1 1 0
575 1 1 -0.159 44.0976643590793 9.659825405238504 6.87340728873885 -1 1 0
596 1 6 -0.396 45.856603863816 7.064617241648155 8.021033199589644 -1 1 0
595 1 5 -0.531 44.74393945496438 6.351611452150391 6.189804056169451 -1 1 0
588 1 4 0.053 42.35300025270649 8.118382888154569 9.50471365573846 -1 1 0
574 1 1 0 43.10296937822645 9.450428545305432 8.032224537922671 -1 1 0
576 1 4 0.053 44.03927001557155 8.84722288671561 6.08974987957817 -1 1 0
589 1 1 0 43.47913450017076 6.799872844449564 8.299469640277248 -1 1 0
603 1 4 0.053 44.6649786503552 6.11250553634729 10.103142419877287 -1 1 0
601 1 1 -0.106 43.623421363930795 5.864600157073657 9.642396357774182 -1 1 0
602 1 4 0.053 42.909612122839604 6.294271760109673 10.329886133101535 -1 1 0
593 1 4 0.053 41.25892269576457 6.58406235160108 8.309325593448824 -1 1 0
408 1 4 0.053 8.157962370438613 12.71503894246935 5.64884363100728 0 1 0
406 1 1 -0.106 8.744871018095257 11.813285840654963 5.410460708549036 0 1 0
422 1 4 0.053 9.84250085697153 14.04454064230927 5.201246343238407 0 1 0
437 1 4 0.053 9.767822603621921 16.027458903377173 5.144861247607717 0 1 0
398 1 4 0.053 6.840472315382374 12.083253958631026 7.036106239497312 0 1 0
379 1 1 0 9.616495225185425 12.025573975265338 9.337770430203474 0 1 0
391 1 1 -0.106 9.731040245784772 12.109491467654532 7.800979573929516 0 1 0
386 1 6 -0.396 7.8903031349833785 13.648798145347062 9.031951432819959 0 1 0
393 1 4 0.053 9.77816075831035 13.25193059664526 7.461191958383806 0 1 0
366 1 4 0.053 9.898120362674682 14.996278374059857 8.715318782043788 0 1 0
387 1 1 0.066 6.8000285877406865 14.454216020640628 9.42712494768036 0 1 0
384 1 3 0.702 8.362096878801088 12.75581461148012 9.920298887961271 0 1 0
390 1 4 0.053 7.094954171869667 15.222273464608927 10.14849982293578 0 1 0
389 1 4 0.053 6.6008048667958805 14.996546318635673 8.526272958778021 0 1 0
365 1 1 -0.159 10.665399403282304 15.176833833270614 9.48025624896539 0 1 0
392 1 4 0.053 10.786687387636137 11.731408127380334 7.584237260590736 0 1 0
388 1 4 0.053 5.944291395656998 13.837332429671775 9.826162620747825 0 1 0
376 1 1 -0.106 10.830703405036079 12.701860493790882 10.094110616455259 0 1 0
368 1 4 0.053 11.109134128783499 16.178757595648797 9.336670571526627 0 1 0
527 1 4 0.053 46.63587551682784 16.111623372605607 10.665576704384256 -1 1 0
355 1 5 -0.531 12.891834339788007 17.668535693498775 10.714668967093823 0 1 0
5323 8 4 0.053 16.47421057539733 16.781184003938222 8.25053379230241 0 0 0
448 1 4 0.053 13.662823747454818 16.588439851253163 6.289453516753318 0 1 0
313 1 4 0.053 15.663171192635136 11.918794188449347 9.483207288248886 0 1 0
411 1 4 0.053 11.642514999283051 12.502551885590748 5.720737855498234 0 1 0
377 1 4 0.053 11.551231297587098 11.872723398332894 10.219738209516132 0 1 0
352 1 4 0.053 15.13123622185116 16.59655529529635 9.634220375875508 0 1 0
351 1 4 0.053 13.844300946493947 15.652177408918053 8.700437779804448 0 1 0
353 1 4 0.053 15.230962034809425 14.824731353803724 9.337231401821041 0 1 0
3277 5 4 0.053 16.3764081587026 14.890128588251493 5.333063171491757 0 0 0
361 1 1 -0.106 12.637197165680595 14.298612400316705 10.799315102192445 0 1 0
333 1 4 0.053 16.867637200079745 15.11587019895228 10.561344219060958 0 1 0
373 1 4 0.053 14.712821995702035 13.163094649075848 7.229880019508204 0 1 0
363 1 4 0.053 13.142182066258176 13.325415185921505 10.980729187843774 0 1 0
375 1 4 0.053 13.628774241392675 12.179399295927201 6.251901309971876 0 1 0
372 1 1 0.066 14.098239581419522 12.24970953902568 7.257778027731118 0 1 0
370 1 5 -0.531 12.21053453405215 14.178551191842965 7.238650684909068 0 1 0
3276 5 4 0.053 15.137750725836481 13.944228769687255 46.44859188491222 0 0 -1
369 1 3 0.702 12.383018090145526 13.585558848033916 8.243641218149534 0 1 0
371 1 6 -0.396 13.243086305182858 12.50035924073756 8.414948621922688 0 1 0
350 1 1 -0.159 14.525091581955802 15.610396780905289 9.616855923990025 0 1 0
364 1 1 0 11.61278103126251 13.968409588997849 9.638654746211275 0 1 0
374 1 4 0.053 14.791373664654722 11.385000633887117 7.394208733530365 0 1 0
3278 5 4 0.053 16.752434747486006 13.150906379246283 5.178822008921075 0 0 0
312 1 1 0.066 16.608867595361424 11.278691308512661 9.318758084836608 0 1 0
310 1 5 -0.531 16.98573044608003 13.761329257741847 8.157859608555569 0 1 0
289 1 1 0 20.971898773557122 12.819645915618782 7.021619809600508 0 1 0
309 1 3 0.702 17.88042558564681 13.30645833200991 8.803187158527436 0 1 0
307 1 4 0.053 18.629631524031808 16.00789592386873 8.66440240227511 0 1 0
290 1 1 -0.159 21.65083156961703 14.123084503706474 6.484724417847236 0 1 0
311 1 6 -0.396 17.791176080040934 12.064019888490549 9.358321316390885 0 1 0
306 1 4 0.053 20.37136745167382 15.656091507160465 8.480215980402516 0 1 0
291 1 4 0.053 20.90306563786458 14.948416819116828 6.087535670878403 0 1 0
295 1 5 -0.531 18.808760284228804 11.983831278950278 6.312227001831488 0 1 0
296 1 6 -0.396 20.310427623999296 12.314046355828584 46.77284712035398 0 1 -1
308 1 4 0.053 19.297534984050625 15.157911954511242 7.099000989762985 0 1 0
305 1 1 -0.159 19.32921256958238 15.25511706817731 8.209955099220645 0 1 0
294 1 3 0.702 19.90358878728689 12.347848187815135 6.019319509590877 0 1 0
1510 3 4 0.053 22.390626604826746 15.88173703646705 9.449825809902114 0 0 1
316 1 1 -0.106 19.49640515768457 14.10570859036116 10.503449161447461 0 1 0
303 1 4 0.053 21.226865608969664 12.979078879375077 9.151285137279531 0 1 0
304 1 1 0 19.225989974434594 13.950153827141229 9.008819721792317 0 1 0
301 1 1 -0.106 20.31111474819341 12.910658885085786 8.457618726287958 0 1 0
302 1 4 0.053 19.912743038121143 11.913421682585003 8.536003556805873 0 1 0
286 1 1 -0.106 22.16879970835413 11.756578749770622 7.01169454805786 0 1 0
293 1 4 0.053 22.246456289635784 14.547688323334977 7.291976284971476 0 1 0
287 1 4 0.053 22.562997636495453 11.706525511918706 5.984703402047719 0 1 0
292 1 4 0.053 22.349222990347247 13.933665233068773 5.607005697760663 0 1 0
1452 2 5 -0.531 27.894664304143078 10.958969273905444 10.584444781019343 1 0 0
1456 2 4 0.053 26.600739965311526 13.18670447372762 11.286968928113414 1 0 0
288 1 4 0.053 22.997071328098414 12.189556602423405 7.593945032633846 0 1 0
1527 3 4 0.053 27.96292329743689 15.064426501935651 10.776474843836635 0 0 1
262 1 4 0.053 25.266487868737233 11.392455629361868 7.132454855252969 0 1 0
1551 3 4 0.053 28.21222969585732 16.77019301881547 6.517152623121451 0 0 1
1515 3 6 -0.396 24.809216296192897 15.346915843948695 7.835985044709172 0 0 1
263 1 4 0.053 24.77232225710597 11.496092521622476 5.431602505199837 0 1 0
1509 3 1 -0.159 23.308396864199896 15.836380236391875 10.046533754112978 0 0 1
1517 3 4 0.053 25.365674289131587 13.780677970740728 6.509449113641443 0 0 1
1516 3 1 0.066 25.073426332303384 14.8217643105725 6.4370910495037945 0 0 1
1545 3 6 -0.396 28.805525522398103 14.459239110071092 7.95569812683776 0 0 1
1537 3 4 0.053 27.025421556336113 16.283492533855053 8.252462389950082 0 0 1
1547 3 4 0.053 28.84829787974041 12.532557510873783 7.106648367595642 0 0 1
1511 3 4 0.053 23.71156105021632 14.810210886044016 10.03825142494239 0 0 1
1520 3 1 -0.106 25.631694978312243 16.377311348161555 10.400100168552461 0 0 1
1522 3 4 0.053 25.74032566538374 15.237535173212578 10.30106361495776 0 0 1
1519 3 4 0.053 25.944011368633063 15.43787644785147 6.018407718082953 0 0 1
1518 3 4 0.053 24.216341990722977 15.041144033588646 5.8166777015894775 0 0 1
1555 3 4 0.053 30.689766490683738 15.13920266496726 5.982208678225535 0 0 1
6521 9 5 -0.531 34.22912079321528 14.50357443284409 9.904686068103882 0 0 0
6533 9 4 0.053 34.05071286743839 13.73348398556647 7.674020934349246 0 0 0
1548 3 4 0.053 30.394698138807048 13.305887683546198 7.613915359938981 0 0 1
1557 3 4 0.053 31.653917426906713 16.02456845335754 7.351444371974577 0 0 1
3637 5 4 0.053 29.699374831801386 11.228437455280087 5.824740165296012 0 0 0
1546 3 1 0.066 29.377944752686023 13.121440604895758 7.874924863740393 0 0 1
1549 3 4 0.053 29.18143552832311 12.61221924568568 8.872945151582055 0 0 1
6532 9 4 0.053 32.79163179714084 12.473524522105585 7.7532857469923995 0 0 0
6531 9 1 -0.159 33.84161981548739 12.706699768371461 7.379956866577181 0 0 0
6534 9 4 0.053 33.72899452721897 12.610265566879617 6.275303513139852 0 0 0
6515 9 1 0 34.318881923339895 12.082636345406698 10.508769100465027 0 0 0
1543 3 3 0.702 29.507929535313444 15.341979346348499 8.72369672632909 0 0 1
6530 9 1 0 34.89584463043306 11.63383153349151 7.870303334779764 0 0 0
6519 9 4 0.053 32.28944446803009 11.517585223014454 9.777261083643788 0 0 0
1544 3 5 -0.531 30.261432889227436 14.925062679446748 9.53473275067511 0 0 1
1554 3 1 -0.159 31.19988574334819 16.047841276257984 6.363397332609495 0 0 1
1556 3 4 0.053 32.128280285071085 16.112310788353625 5.789362636347135 0 0 1
6535 9 3 0.702 36.16458013672243 11.828887978765486 6.8806853470228795 0 0 0
6536 9 5 -0.531 36.16877623902104 11.630807066519427 5.71080413025444 0 0 0
6527 9 1 -0.106 35.3199206850601 11.947845021805426 9.298199195702185 0 0 0
6528 9 4 0.053 35.935890384763205 11.088775907770415 9.524468744993134 0 0 0
2892 4 4 0.053 37.05829740199715 15.958818153213187 9.578740515209565 0 0 0
2894 4 4 0.053 37.481089090596406 15.522968529330686 7.909781500173007 0 0 0
6538 9 1 0.066 38.380550968898724 12.860782035030454 6.9309277812730095 0 0 0
2891 4 1 -0.159 36.88774579554022 16.218734190351206 8.52643510295582 0 0 0
6529 9 4 0.053 35.96540174053803 12.863945558283447 9.443211468927878 0 0 0
6537 9 6 -0.396 37.215926389786816 12.332649299646029 7.596892114381347 0 0 0
6508 9 1 0.066 39.069969290852754 11.478842869846734 10.440704895427727 0 0 0
6541 9 4 0.053 39.10578128820552 12.044853047781494 6.845796536884217 0 0 0
2893 4 4 0.053 35.861139744879495 16.046393923276568 8.234837217958479 0 0 0
6510 9 4 0.053 39.10113411745793 10.568945241311871 9.954265561935715 0 0 0
6540 9 4 0.053 38.82428980438996 13.677515514570175 7.3740229422373575 0 0 0
6509 9 4 0.053 39.89057765441421 11.59280503731862 11.184230207082585 0 0 0
6539 9 4 0.053 38.08952356159908 13.194303550503493 5.93097870191896 0 0 0
2889 4 4 0.053 39.402000907287515 16.713926304132613 7.902273023579909 0 0 0
2888 4 4 0.053 38.99915497551578 16.93571911822607 9.658085261812838 0 0 0
6511 9 4 0.053 39.27174003541739 12.281923231558178 9.680184172712748 0 0 0
563 1 4 0.053 41.18306318612092 12.33362755893555 8.141354634452094 -1 1 0
561 1 4 0.053 42.011408389125975 13.708309110563194 7.461394963527218 -1 1 0
566 1 6 -0.396 44.61050084180822 13.851524744891975 7.713568125717832 -1 1 0
559 1 1 0 43.210026346825146 12.135549833903095 8.745258294703829 -1 1 0
565 1 5 -0.531 45.664984859851295 11.967639831985739 8.300999210145406 -1 1 0
558 1 4 0.053 42.67150025117596 14.056652338163246 9.60036753885669 -1 1 0