LAMMPS data file via write_data, version 22 Jul 2025, timestep = 2000000, units = real

4520 atoms
7 atom types
4510 bonds
10 bond types
8000 angles
18 angle types
9970 dihedrals
23 dihedral types
4500 impropers
11 improper types

4.585881961984121 41.04724146801915 xlo xhi
4.585881961984121 41.04724146801915 ylo yhi
4.585881961984121 41.04724146801915 zlo zhi

Masses

1 12.01115
2 12.01115
3 12.01115
4 1.00797
5 1.008
6 15.9994
7 15.9994

Pair Coeffs # lj/class2/coul/long/gpu

1 0.054 4.01
2 0.054 4.01
3 0.12 3.81
4 0.02 2.995
5 0.013 1.11
6 0.267 3.3
7 0.24 3.42

Bond Coeffs # class2

1 1.53 299.67 -501.77 679.81
2 1.53 299.67 -501.77 679.81
3 1.5202 253.707 -423.037 396.9
4 1.101 345 -691.89 844.6
5 1.5202 253.707 -423.037 396.9
6 1.101 345 -691.89 844.6
7 1.43 326.727 -608.531 689.033
8 1.202 851.14 -1918.49 2160.77
9 1.3683 367.148 -794.791 1055.23
10 0.952 534.299 -1287.19 1889.14

Angle Coeffs # class2

1 108.53 51.9747 -9.4851 -10.9985
2 110.77 41.453 -10.604 5.129
3 108.53 51.9747 -9.4851 -10.9985
4 110.77 41.453 -10.604 5.129
5 107.41 63.3907 -13.4513 1.665
6 123.145 55.5431 -17.2123 0.1348
7 100.318 38.8631 -3.8323 -7.9802
8 110.77 41.453 -10.604 5.129
9 123.145 55.5431 -17.2123 0.1348
10 100.318 38.8631 -3.8323 -7.9802
11 113.288 61.2868 -28.9786 7.9929
12 107.734 40.6099 -28.8121 0
13 107.734 40.6099 -28.8121 0
14 109.5 60 0 0
15 112.874 53.2512 -14.9979 2.464
16 107.66 39.641 -12.921 -2.4318
17 107.688 65.4801 -10.3498 5.8866
18 120.797 95.3446 -32.2869 6.3778

BondBond Coeffs

1 5.4199 1.53 1.5202
2 3.3872 1.53 1.101
3 5.4199 1.53 1.5202
4 3.3872 1.53 1.101
5 23.2647 1.53 1.43
6 46.0685 1.5202 1.202
7 19.1069 1.5202 1.3683
8 3.3872 1.53 1.101
9 46.0685 1.5202 1.202
10 19.1069 1.5202 1.3683
11 45.4503 1.43 1.3683
12 0.7115 1.5202 1.101
13 0.7115 1.5202 1.101
14 0 1.5202 1.43
15 9.5671 1.3683 0.952
16 5.3316 1.101 1.101
17 5.6454 1.101 1.43
18 121.488 1.202 1.3683

BondAngle Coeffs

1 18.1678 15.8758 1.53 1.5202
2 20.754 11.421 1.53 1.101
3 18.1678 15.8758 1.53 1.5202
4 20.754 11.421 1.53 1.101
5 23.392 47.9487 1.53 1.43
6 34.9982 37.1298 1.5202 1.202
7 1.3435 4.6978 1.5202 1.3683
8 20.754 11.421 1.53 1.101
9 34.9982 37.1298 1.5202 1.202
10 1.3435 4.6978 1.5202 1.3683
11 41.9116 46.4608 1.43 1.3683
12 12.4632 9.1765 1.5202 1.101
13 12.4632 9.1765 1.5202 1.101
14 0 0 1.5202 1.43
15 37.9163 21.4364 1.3683 0.952
16 18.103 18.103 1.101 1.101
17 8.6864 57.4975 1.101 1.43
18 76.2614 71.8761 1.202 1.3683

Dihedral Coeffs # class2

1 0.0442 0 0.0292 0 0.0562 0
2 1.8341 0 2.0603 0 -0.0195 0
3 0.0442 0 0.0292 0 0.0562 0
4 1.8341 0 2.0603 0 -0.0195 0
5 0 0 0 0 -0.1932 0
6 -2.5594 0 2.2013 0 0.0325 0
7 -2.5594 0 2.2013 0 0.0325 0
8 -2.9126 0 1.0199 0 -0.2077 0
9 0 0 2.2089 0 0 0
10 -0.0228 0 0.028 0 -0.1863 0
11 -0.0228 0 0.028 0 -0.1863 0
12 0 0 0 0 -0.1932 0
13 0 0 0 0 -0.1932 0
14 -0.1432 0 0.0617 0 -0.1083 0
15 -0.1432 0 0.0617 0 -0.1083 0
16 0 0 0 0 -0.25 0
17 -0.1804 0 0.0012 0 0.0371 0
18 -0.6359 0 1.4807 0 -0.0438 0
19 -0.1804 0 0.0012 0 0.0371 0
20 -0.6359 0 1.4807 0 -0.0438 0
21 0 0 2.2089 0 0 0
22 0 180 0 0 0 0
23 0 180 0 0 0 0

AngleAngleTorsion Coeffs

1 -8.019 108.53 123.145
2 0 108.53 100.318
3 -8.019 108.53 123.145
4 0 108.53 100.318
5 0 107.41 113.288
6 0 100.318 113.288
7 0 100.318 113.288
8 0 100.318 112.874
9 0 113.288 120.797
10 -5.3624 108.53 110.77
11 -5.3624 108.53 110.77
12 0 109.5 113.288
13 0 113.288 107.688
14 -12.564 110.77 110.77
15 -12.564 110.77 110.77
16 0 110.77 107.41
17 -15.3496 107.734 123.145
18 0 107.734 100.318
19 -15.3496 107.734 123.145
20 0 107.734 100.318
21 0 112.874 120.797
22 0 123.145 109.5
23 0 109.5 100.318

EndBondTorsion Coeffs

1 0.2654 0.0503 0.1046 -0.281 0.0816 -0.1522 1.53 1.202
2 0 0 0 0 0 0 1.53 1.3683
3 0.2654 0.0503 0.1046 -0.281 0.0816 -0.1522 1.53 1.202
4 0 0 0 0 0 0 1.53 1.3683
5 0 0 0 0 0 0 1.53 1.3683
6 0 0 0 0 0 0 1.5202 1.43
7 0 0 0 0 0 0 1.5202 1.43
8 0 0 0 0 0 0 1.5202 0.952
9 0 0 0 0 0 0 1.43 1.202
10 -0.0204 0.3628 -0.4426 -0.0097 -0.0315 -0.0755 1.5202 1.101
11 -0.0204 0.3628 -0.4426 -0.0097 -0.0315 -0.0755 1.5202 1.101
12 0 0 0 0 0 0 1.5202 1.3683
13 0 0 0 0 0 0 1.3683 1.101
14 0.213 0.312 0.0777 0.213 0.312 0.0777 1.101 1.101
15 0.213 0.312 0.0777 0.213 0.312 0.0777 1.101 1.101
16 0 0 0 0 0 0 1.101 1.43
17 1.2143 0.2831 0.3916 -0.2298 0.0354 0.3853 1.101 1.202
18 0 0 0 0 0 0 1.101 1.3683
19 1.2143 0.2831 0.3916 -0.2298 0.0354 0.3853 1.101 1.202
20 0 0 0 0 0 0 1.101 1.3683
21 0 0 0 0 0 0 0.952 1.202
22 0 0 0 0 0 0 1.202 1.43
23 0 0 0 0 0 0 1.43 1.3683

MiddleBondTorsion Coeffs

1 0.3388 -0.1096 0.1219 1.5202
2 -17.328 -5.79 -3.2114 1.5202
3 0.3388 -0.1096 0.1219 1.5202
4 -17.328 -5.79 -3.2114 1.5202
5 -5.435 0 0 1.43
6 1.3445 3.5515 -4.9202 1.3683
7 1.3445 3.5515 -4.9202 1.3683
8 2.1452 0.5482 -2.3693 1.3683
9 4.26 0 0 1.3683
10 -3.5039 1.2458 -0.761 1.53
11 -3.5039 1.2458 -0.761 1.53
12 0 0 0 1.43
13 0 0 0 1.43
14 -14.261 -0.5322 -0.4864 1.53
15 -14.261 -0.5322 -0.4864 1.53
16 0 0 0 1.53
17 0.2359 0.9139 0.9594 1.5202
18 -13.7686 -2.5959 1.1934 1.5202
19 0.2359 0.9139 0.9594 1.5202
20 -13.7686 -2.5959 1.1934 1.5202
21 4.26 0 0 1.3683
22 0 0 0 1.5202
23 0 0 0 1.5202

BondBond13 Coeffs

1 0 1.53 1.202
2 0 1.53 1.3683
3 0 1.53 1.202
4 0 1.53 1.3683
5 0 1.53 1.3683
6 0 1.5202 1.43
7 0 1.5202 1.43
8 0 1.5202 0.952
9 0 1.43 1.202
10 0 1.5202 1.101
11 0 1.5202 1.101
12 0 1.5202 1.3683
13 0 1.3683 1.101
14 0 1.101 1.101
15 0 1.101 1.101
16 0 1.101 1.43
17 0 1.101 1.202
18 0 1.101 1.3683
19 0 1.101 1.202
20 0 1.101 1.3683
21 0 0.952 1.202
22 0 1.202 1.43
23 0 1.43 1.3683

AngleTorsion Coeffs

1 0.0885 -1.3703 -0.5452 0.675 0.5965 0.6725 108.53 123.145
2 0 0 0 0 0 0 108.53 100.318
3 0.0885 -1.3703 -0.5452 0.675 0.5965 0.6725 108.53 123.145
4 0 0 0 0 0 0 108.53 100.318
5 0 0 0 0 0 0 107.41 113.288
6 0 0 0 0 0 0 100.318 113.288
7 0 0 0 0 0 0 100.318 113.288
8 0 0 0 0 0 0 100.318 112.874
9 0 0 0 0 0 0 113.288 120.797
10 -0.7466 -0.9448 -0.6321 0.0162 1.4211 -1.4092 108.53 110.77
11 -0.7466 -0.9448 -0.6321 0.0162 1.4211 -1.4092 108.53 110.77
12 0 0 0 0 0 0 109.5 113.288
13 0 0 0 0 0 0 113.288 107.688
14 -0.8085 0.5569 -0.2466 -0.8085 0.5569 -0.2466 110.77 110.77
15 -0.8085 0.5569 -0.2466 -0.8085 0.5569 -0.2466 110.77 110.77
16 0 0 0 0 0 0 110.77 107.41
17 9.1299 -0.4847 0.3582 -1.4946 0.7308 -0.2083 107.734 123.145
18 0 0 0 0 0 0 107.734 100.318
19 9.1299 -0.4847 0.3582 -1.4946 0.7308 -0.2083 107.734 123.145
20 0 0 0 0 0 0 107.734 100.318
21 0 0 0 0 0 0 112.874 120.797
22 0 0 0 0 0 0 123.145 109.5
23 0 0 0 0 0 0 109.5 100.318

Improper Coeffs # class2

1 0 0
2 0 0
3 0 0
4 0 0
5 0 0
6 0 0
7 0 0
8 0 0
9 0 0
10 46.9264 0
11 46.9264 0

AngleAngle Coeffs

1 1.0827 -1.8202 2.0403 110.77 108.53 107.734
2 0.2738 -0.4825 0.2738 110.77 110.77 107.66
3 0.2738 -0.4825 0.2738 110.77 110.77 107.66
4 -3.3867 -3.4976 -3.3867 107.734 107.734 107.66
5 -0.3157 -0.3157 -0.3157 107.66 107.66 107.66
6 1.0827 -1.8202 2.0403 110.77 108.53 107.734
7 0 0 0 110.77 107.41 107.688
8 0 0 0 107.41 108.53 109.5
9 0 0 0 107.734 109.5 107.688
10 0 0 0 100.318 123.145 120.797
11 0 0 0 100.318 123.145 120.797

Atoms # full

1640 4 4 0.053 7.863092024417376 8.221206010738499 7.452801459873274 0 0 0
1638 4 1 -0.159 7.673029290838406 9.037861325248624 8.08912493398882 0 0 0
1639 4 4 0.053 6.6995308519996914 8.980953259638673 8.54301515677198 0 0 0
1641 4 4 0.053 8.388396367616187 8.840990100780157 8.95385129856357 0 0 0
2581 6 4 0.053 5.3066782896002875 7.181151706253083 6.658302355907828 1 0 0
1756 4 4 0.053 9.558539068074648 6.1342899780544595 8.64570236259232 0 0 0
1635 4 7 -0.396 9.073605665627138 10.24669593634737 6.425780390474625 0 0 0
1636 4 2 0.172 8.086832719414422 10.42369993716473 7.491798750648818 0 0 0
2580 6 4 0.053 6.44377495125458 5.939335118580262 6.263170209710967 1 0 0
1633 4 3 0.702 10.323283655105648 9.743703619051022 6.689901816608313 0 0 0
1634 4 6 -0.531 10.68445557306396 9.212931599801898 7.7225088772615855 0 0 0
1755 4 1 -0.159 10.297243752566015 5.867449113817885 9.443381502380442 0 0 0
1666 4 4 0.053 8.914655333095428 7.545317190014854 4.703275410531682 0 0 0
2576 6 2 0.172 40.91348703611039 5.603482468602726 5.429386293696904 0 0 0
2577 6 4 0.053 40.526436597645954 5.1226366496390705 6.308341900004951 0 0 0
1628 4 4 0.053 11.589265536630158 9.108990001811136 4.910564349880162 0 0 0
1627 4 2 0.172 11.433117802436 10.071367102808216 5.504143228239945 0 0 0
1615 4 3 0.702 13.306972963324261 9.329292232579697 9.401591210933642 0 0 0
1616 4 6 -0.531 13.250640513086934 8.282624226711608 8.754431507401126 0 0 0
1624 4 3 0.702 13.626827057250173 9.792588625117332 6.436105863073302 0 0 0
1727 4 4 0.053 14.56432996270702 6.414860442090887 5.403143534087719 0 0 0
1625 4 6 -0.531 13.807858760505477 8.668905413655855 5.963843324951797 0 0 0
1619 4 4 0.053 15.354138452177686 9.85462562790006 7.54448719534669 0 0 0
3770 9 2 0.172 13.261169278637833 14.16567196971446 4.645038402670527 1 0 1
1618 4 2 0.172 14.449413360649064 10.440375366021607 7.578182521454537 0 0 0
1758 4 4 0.053 11.021840961501454 6.650558872354669 9.35786506841223 0 0 0
982 3 4 0.053 31.841576419986392 18.683546715769516 22.784419429262996 -1 0 0
1617 4 7 -0.396 13.861201985833842 10.449365998230641 8.866157939235555 0 0 0
355 1 4 0.053 26.22644504853924 5.4266280481039 6.829604301072011 0 1 -1
1626 4 7 -0.396 12.678520674725124 10.617897260004352 6.113732566706207 0 0 0
3339 8 4 0.053 14.484853986302236 13.534893581223542 22.75021526551331 1 0 0
1607 4 6 -0.531 11.318011739272036 11.80266148863928 9.334634890152394 0 0 0
1620 4 1 -0.159 14.81707913088773 11.988608586917017 7.294295756590613 0 0 0
1622 4 4 0.053 15.550857265307965 12.232115965029784 8.014815905405166 0 0 0
3066 7 1 -0.159 29.228496755148786 4.936064380219254 6.820794073157368 -1 0 1
1609 4 2 0.172 12.834225798467548 9.701933073753992 10.835449425852042 0 0 0
1606 4 3 0.702 10.928366309048807 11.265355352740867 10.334463244100654 0 0 0
1757 4 4 0.053 10.818513211022644 4.932734205924158 9.244919464196578 0 0 0
3448 8 4 0.053 39.74300463270748 19.722129029113752 4.626787443441787 0 0 1
32 1 4 0.053 18.288073558361198 6.758859742348427 9.87918248796894 0 1 0
29 1 4 0.053 16.441352130780547 7.498361947648681 8.016510884333549 0 1 0
27 1 7 -0.396 17.813774633688556 8.978761745117904 8.627692737111573 0 1 0
28 1 2 0.172 17.524794208606174 7.680883261143136 8.012955937184174 0 1 0
30 1 1 -0.159 18.436836632853307 6.723891716626816 8.8222212784459 0 1 0
34 1 3 0.702 17.778064686347527 7.52764125051642 6.460848789829761 0 1 0
36 1 7 -0.396 18.951159537712314 7.006219498514719 6.136089262970803 0 1 0
35 1 6 -0.531 17.032536848184293 7.909879631494894 5.617897530065546 0 1 0
25 1 3 0.702 17.362791148399552 9.237951541939264 9.85322372136645 0 1 0
31 1 4 0.053 19.520664757031152 7.004182055760012 8.711177552578098 0 1 0
1101 3 6 -0.531 21.044901020600122 9.890712926553864 6.083875557698494 -1 0 1
33 1 4 0.053 18.341970703010038 5.572088560379248 8.707895466234543 0 1 0
42 1 4 0.053 21.3529229121677 6.989469726279635 5.46445775466524 0 1 0
26 1 6 -0.531 16.411681765463918 8.721857617610702 10.305032039088731 0 1 0
37 1 2 0.172 19.320190580645864 6.783211223005651 4.750876794283508 0 1 0
1731 4 4 0.053 12.167572602278135 6.181837812297646 5.555958828302389 0 0 0
350 1 6 -0.531 22.002226435564758 7.4335179409129175 8.039833157116565 0 1 -1
352 1 2 0.172 24.474797630604808 6.282465166927009 7.679472594950022 0 1 -1
360 1 7 -0.396 26.391726429963683 7.748239083295591 7.4473433164301746 0 1 -1
358 1 3 0.702 25.284043265855427 7.5207963677176135 8.208046199708207 0 1 -1
362 1 4 0.053 26.642316685085607 9.72618163606292 8.113608483496819 0 1 -1
349 1 3 0.702 22.381354262688312 6.6111204776521655 8.831358213009729 0 1 -1
351 1 7 -0.396 23.388523483580215 5.698018260306208 8.548349998520633 0 1 -1
359 1 6 -0.531 24.94514172072929 8.226696462901527 9.14236221910702 0 1 -1
353 1 4 0.053 24.120877467760973 6.456019033416046 6.66750881082192 0 1 -1
361 1 2 0.172 27.275805389395895 8.872939689473764 7.83969590110173 0 1 -1
364 1 4 0.053 28.67844259402829 10.207950673019559 6.646182078434129 0 1 -1
148 1 4 0.053 35.3362707088147 21.88275113209955 22.3749012641272 -1 1 -1
1100 3 3 0.702 22.224928671063832 10.06826361604523 5.8216210327329385 -1 0 1
1099 3 4 0.053 24.63250620550808 8.418533315474374 5.371984392818716 -1 0 1
1098 3 4 0.053 24.99519458706223 10.068542041288346 4.88160054049079 -1 0 1
3739 9 4 0.053 6.838953577166543 22.616786776282577 11.515192617832415 1 0 1
1108 3 4 0.053 22.60291905676701 9.734404302995166 8.836163709334073 -1 0 1
1730 4 4 0.053 12.636506611878794 6.514292726603137 7.124612401729356 0 0 0
3070 7 3 0.702 27.61920738155012 5.588828312717039 4.752585074885278 -1 0 1
176 1 4 0.053 40.94881301739037 18.797666792151112 22.278079014812487 -1 1 -1
1107 3 4 0.053 24.123115509654763 10.540293708819132 8.99515747795045 -1 0 1
1102 3 7 -0.396 23.19445405508785 10.637509473824775 6.5902712137167025 -1 0 1
764 2 4 0.053 31.29665432692484 22.624999426769026 14.93894924488414 -1 1 0
3063 7 7 -0.396 30.139783687371626 5.025617928227361 4.644936773660551 -1 0 1
139 1 4 0.053 39.76916804289205 21.907749817270453 21.097361203524237 -1 1 -1
2397 6 4 0.053 5.265001721756944 22.562775035165366 15.07696851344606 0 0 0
363 1 1 -0.159 28.27234666470153 9.19543081649774 6.712084240763749 0 1 -1
3064 7 2 0.172 29.03459231950668 5.639179046095878 5.395866978532413 -1 0 1
365 1 4 0.053 29.07080734194796 8.40633636619749 6.805897318415322 0 1 -1
366 1 4 0.053 27.823556514069644 9.074485477263863 5.718615966513942 0 1 -1
367 1 3 0.702 28.041036510914484 8.643966863259415 9.268634886684803 0 1 -1
369 1 7 -0.396 29.337671512991122 8.13971200090919 9.20010761450589 0 1 -1
372 1 1 -0.159 31.67419341278134 7.851884262188904 9.64721883237856 0 1 -1
2556 6 6 -0.531 31.535907051275323 7.203715798318383 6.078143744733053 0 0 0
375 1 4 0.053 31.983225872324017 8.682068505316888 8.984704686473956 0 1 -1
2555 6 3 0.702 32.26035916840788 8.033192857968876 5.581186050433127 0 0 0
373 1 4 0.053 31.573997553516147 6.972879886787222 8.978255099393943 0 1 -1
374 1 4 0.053 32.36249933670564 7.52653420186298 10.438514095985553 0 1 -1
3067 7 4 0.053 28.730520914683066 5.522072713760112 7.533249209988362 -1 0 1
3065 7 4 0.053 29.226015088582542 6.7332868193671604 5.3694984610348895 -1 0 1
370 1 2 0.172 30.266434044835446 8.244699993591265 10.272750889546757 0 1 -1
309 1 1 -0.159 18.150769824611025 4.634194650550665 20.053640444653503 0 1 -1
371 1 4 0.053 30.3109396641206 9.303659919829489 10.687266417728452 0 1 -1
2549 6 2 0.172 31.774726861899346 9.334506352626775 4.769603663502017 0 0 0
2557 6 7 -0.396 33.60883009240974 8.094448012742983 5.626494244493573 0 0 0
2561 6 4 0.053 33.47741185062444 5.27660282160851 6.261914453414688 0 0 0
2559 6 4 0.053 34.018741147306656 7.308073826278255 7.5126407111968705 0 0 0
2558 6 2 0.172 34.422597187118754 7.312755885020447 6.492496908903687 0 0 0
2564 6 3 0.702 35.82092958968071 7.874150007429863 6.579318842089422 0 0 0
2565 6 6 -0.531 36.41541503827197 8.465312352041547 7.4347979584174535 0 0 0
2568 6 4 0.053 38.0807749141427 8.965856232530118 5.652274985892113 0 0 0
2566 6 7 -0.396 36.53135443279361 7.59833228250705 5.412620060455272 0 0 0
2116 5 4 0.053 37.94322715497375 6.771760253348567 9.289778777491064 -1 2 0
2567 6 2 0.172 37.834933417020245 7.991627355724894 5.193859811009169 0 0 0
2121 5 3 0.702 36.19672407653401 5.400983823019804 9.89740830988725 -1 2 0
2560 6 1 -0.159 34.39777723926257 5.847791063218775 5.943954417682647 0 0 0
2122 5 6 -0.531 35.35565911973819 6.171831767438798 10.242194676925248 -1 2 0
2115 5 2 0.172 37.838725619448994 5.701091064676152 9.703044802291643 -1 2 0
2562 6 4 0.053 34.381979566423944 5.868378439283775 4.806618638645755 0 0 0
908 3 4 0.053 36.658726303248606 9.919740050041753 11.339432746607152 -1 0 0
2563 6 4 0.053 35.3097717953714 5.350812528384059 6.352935442072658 0 0 0
345 1 1 -0.159 21.563921710942164 4.936181097038372 10.72926345232954 0 1 -1
2573 6 3 0.702 38.88399420007147 6.958992147386558 5.795362301658406 0 0 0
2574 6 6 -0.531 38.94375386200213 6.663897577170502 6.945048216894129 0 0 0
627 2 4 0.053 40.76014224203241 9.866334640775136 9.538875416857007 -1 1 0
2575 6 7 -0.396 39.82441588520103 6.52325982316898 4.882950276397691 0 0 0
626 2 1 -0.159 40.085258748206215 10.685659987553025 9.803748484709832 -1 1 0
628 2 4 0.053 39.93460722665103 11.197567753341795 8.87081586174168 -1 1 0
3322 8 4 0.053 15.559764614868822 22.509980627491313 22.37516339041101 1 0 0
1644 4 7 -0.396 6.065606570753795 10.787984460215736 6.259987721543826 0 0 0
1637 4 4 0.053 8.613230768179289 11.08615229976389 8.266262108548444 0 0 0
1642 4 3 0.702 6.949531777416294 11.380375298290183 7.1121804101327175 0 0 0
1643 4 6 -0.531 6.697741574408756 12.373836126054599 7.686672321804294 0 0 0
1646 4 4 0.053 5.470490848542681 12.629513406161504 5.620433261675477 0 0 0
1645 4 2 0.172 5.309196916089499 11.548982395716838 5.34802977865718 0 0 0
3764 9 4 0.053 9.813225761675834 14.57942788599322 8.304625561985997 1 0 1
3766 9 4 0.053 9.290648039308895 14.449550020630424 6.585932538708123 1 0 1
3431 8 4 0.053 5.3496429780429695 14.851241078462177 8.684890701401905 1 0 1
1595 4 4 0.053 8.426240892411144 15.597503237361412 9.656148201181947 0 0 0
3763 9 1 -0.159 10.170241092551155 14.675082645784034 7.2717888485389155 1 0 1
625 2 4 0.053 5.278927522869795 12.044926851051969 10.438156134194008 0 1 0
3429 8 4 0.053 6.299830912882524 15.013723566053818 7.064178049046786 1 0 1
3428 8 1 -0.159 5.439150151088666 15.29830416934196 7.714353252114146 1 0 1
3765 9 4 0.053 10.809954231244344 13.744173651412995 7.168255588876157 1 0 1
39 1 1 -0.159 20.71580576224777 6.248143416118633 4.882169679644009 0 1 0
1593 4 1 -0.159 8.902593513683655 15.790369671778572 10.639251050082493 0 0 0
1594 4 4 0.053 9.978825959482052 15.629710076818993 10.592208399297931 0 0 0
1596 4 4 0.053 8.750251466158272 16.90226408191721 10.713745963145307 0 0 0
611 2 4 0.053 6.8714864149303985 4.8941301967814255 15.653472472631107 0 1 0
3769 9 7 -0.396 12.401564719402659 14.52375615779173 5.71380921403651 1 0 1
3767 9 3 0.702 12.237279391929963 15.860883586833346 5.995926348683228 1 0 1
1 1 1 -0.106 13.648243763141531 15.366732890774815 9.355861803850903 0 1 0
1621 4 4 0.053 13.809742881144249 12.521798394428522 7.347721728511304 0 0 0
451 1 4 0.053 13.751364181877364 14.970997078162402 8.316174811830475 0 1 0
3446 8 1 -0.159 38.66288392892222 19.693172688733416 4.813604523636033 0 0 1
5 1 4 0.053 12.931319763123177 13.610410605836803 10.526020343723772 0 1 0
3761 9 2 0.172 10.930859491138634 16.0200469577731 6.927788391173721 1 0 1
7 1 3 0.702 15.08497183646899 15.462805698299373 9.90976066043192 0 1 0
9 1 7 -0.396 15.603446422118896 14.161235570858654 9.968327224917578 0 1 0
2 1 4 0.053 13.32443306779698 16.419129503291316 9.28179404122941 0 1 0
3777 9 6 -0.531 15.770578463913813 14.822103258319423 5.300968868048708 1 0 1
3762 9 4 0.053 11.196149719451155 16.42203383736264 7.930441442161329 1 0 1
4411 10 2 0.172 11.204700754513393 22.816240781054475 6.321568254037751 1 0 1
2109 5 4 0.053 38.07784552006185 5.2240208894597355 13.558696937217132 -1 2 0
3 1 1 -0.159 12.596163933299701 14.554619892469828 10.125862163700893 0 1 0
6 1 4 0.053 11.740340556384918 14.325836015459732 9.445456564936862 0 1 0
1614 4 4 0.053 14.804421100485627 10.414852801165285 11.47691976075199 0 0 0
1611 4 1 -0.159 13.753601842949063 10.792792903271266 11.405990780667363 0 0 0
1613 4 4 0.053 13.821003754051846 11.764949842659526 10.874111262066034 0 0 0
3771 9 4 0.053 13.620669757375909 13.091033188864317 4.8641644204280885 1 0 1
3328 8 4 0.053 12.930828934395246 19.584240265950804 21.95363827196466 1 0 0
3816 9 4 0.053 20.028960269414547 11.941409384032806 5.491817988192814 1 0 1
24 1 4 0.053 19.983464523896867 10.533619529962769 9.085182070614062 0 1 0
3819 9 4 0.053 17.926029104037248 10.941148982613191 6.721725971310951 1 0 1
3818 9 4 0.053 18.816261751474492 12.277278309214632 7.59376408214343 1 0 1
3820 9 4 0.053 17.32104533964454 12.718973697462722 6.701360708152629 1 0 1
3817 9 1 -0.159 18.191182849734407 12.008307418832038 6.692501665841088 1 0 1
3813 9 6 -0.531 20.494565939928293 13.96879302923819 7.495303607450587 1 0 1
3812 9 3 0.702 20.097061151579283 14.478128714709925 6.4791085735972365 1 0 1
3814 9 7 -0.396 19.31514580903159 13.850039949664172 5.550583445343723 1 0 1
3815 9 2 0.172 19.040258021802956 12.42593308639373 5.432713754728406 1 0 1
21 1 1 -0.159 19.721749986133737 10.537877509499445 10.167552322300097 0 1 0
2507 6 4 0.053 21.472340617625193 15.518288360203565 9.424460720121985 0 0 0
15 1 4 0.053 19.0078999929218 14.592764047963765 10.28132635096087 0 1 0
18 1 7 -0.396 17.67087883262373 11.746528827216952 10.274380804564839 0 1 0
22 1 4 0.053 20.206210828434145 11.487772139849305 10.347427950853657 0 1 0
2509 6 4 0.053 21.0031373781621 14.177650678204495 10.513985223353298 0 0 0
2506 6 1 -0.159 21.801057496320542 14.922500456192981 10.290898250851537 0 0 0
14 1 4 0.053 18.1393493033854 13.986550883340609 8.896618282020416 0 1 0
41 1 4 0.053 20.811675156935806 5.327617095967362 5.432078574854105 0 1 0
1104 3 4 0.053 21.680709990309072 11.757063776864442 7.536630324418484 -1 0 1
2508 6 4 0.053 22.791201062149714 14.424812439130916 10.059389796207771 0 0 0
1105 3 1 -0.159 23.06724833881742 10.6988620005747 8.903303223130727 -1 0 1
1103 3 2 0.172 22.7937135411804 11.485229350055192 7.655108876416874 -1 0 1
1112 3 2 0.172 25.501016119458342 14.099865341705883 8.370972327601262 -1 0 1
1113 3 4 0.053 25.817149208253415 14.356051961815716 9.436978488251178 -1 0 1
1111 3 7 -0.396 24.46258668877161 13.064898266736197 8.409966728029614 -1 0 1
1109 3 3 0.702 23.49791229617967 12.838309813653483 7.5099610616192045 -1 0 1
1110 3 6 -0.531 23.2547343649308 13.681326698335372 6.643230910272514 -1 0 1
1114 3 1 -0.159 26.633970386280158 13.404645121695738 7.595654746398922 -1 0 1
1117 3 4 0.053 26.452406852737173 13.490805284474844 6.52614957484709 -1 0 1
1118 3 3 0.702 25.02662481030275 15.455233004812056 7.793896052096135 -1 0 1
1120 3 7 -0.396 25.40384029091904 15.620292924377006 6.458981799490807 -1 0 1
2529 6 6 -0.531 27.17867330388778 11.812494430926813 10.212577032078315 0 0 0
1116 3 4 0.053 26.691559754105967 12.35002730479053 7.8582998323833015 -1 0 1
3447 8 4 0.053 38.32415195467661 18.663632224645085 4.769382323734949 0 0 1
1743 4 7 -0.396 13.816665107484257 4.687401201072781 11.555547269194127 0 0 0
2547 6 6 -0.531 32.882170196248126 10.255572769450543 7.0701941186698 0 0 0
2548 6 7 -0.396 31.316786647942866 10.48257792304797 5.483752633351049 0 0 0
2545 6 4 0.053 30.880741905005372 13.00343680056094 5.090242367973156 0 0 0
1115 3 4 0.053 27.51619665621153 13.988917979710038 7.6138309654044996 -1 0 1
2543 6 4 0.053 29.56680190758044 12.598653044840978 6.33455399036507 0 0 0
2546 6 3 0.702 32.0666720702371 10.887175377743457 6.5389868279368 0 0 0
2538 6 6 -0.531 29.636279302642116 11.127479072264434 8.514099177802137 0 0 0
2542 6 1 -0.159 30.568795524105266 13.02992447699865 6.158835599571409 0 0 0
2537 6 3 0.702 30.24030063220742 12.045391817155611 8.957563154791472 0 0 0
2540 6 2 0.172 31.670937798964584 12.370460596655537 6.99876741727652 0 0 0
2539 6 7 -0.396 31.347081889116648 12.675526011693885 8.40681262728137 0 0 0
2541 6 4 0.053 32.63872250540621 12.907563727619827 6.830367225773614 0 0 0
2544 6 4 0.053 30.663536285129833 14.083683743191179 6.375889726719087 0 0 0
2532 6 4 0.053 28.901604517389547 13.406042323417918 9.853318576356578 0 0 0
799 2 4 0.053 30.480105345749934 15.728948743075089 8.002234381191965 -1 1 0
2531 6 2 0.172 29.784273257611275 12.82454202708725 10.356969530671225 0 0 0
1355 3 4 0.053 35.04894351409688 9.076747346711826 9.552200621363532 -1 0 0
909 3 4 0.053 37.12611402207791 10.54666356612282 9.67410786201868 -1 0 0
3327 8 2 0.172 13.538585115069264 19.230666569904784 22.77721380844981 1 0 0
905 3 1 -0.106 35.002089509957614 10.13652514340548 9.87552569617851 -1 0 0
818 2 4 0.053 37.89487425495823 12.655672879114888 4.929215063473206 -1 1 0
810 2 3 0.702 35.06134593292728 14.930130046329479 6.833869798659098 -1 1 0
812 2 7 -0.396 35.27042497064363 13.646838261948766 6.960088702629457 -1 1 0
814 2 4 0.053 35.843968534670935 11.71705867962065 6.072909910189163 -1 1 0
813 2 2 0.172 35.863196677907105 12.823288587595101 5.801369395201103 -1 1 0
815 2 1 -0.159 37.390467293912046 13.151131516800673 5.764329737800949 -1 1 0
816 2 4 0.053 37.85639049058543 12.885967811745525 6.698012886831119 -1 1 0
817 2 4 0.053 37.58297999991852 14.206596437221219 5.663681078022216 -1 1 0
811 2 6 -0.531 35.27876237761239 15.47141645815361 5.8029978518402325 -1 1 0
808 2 4 0.053 33.898104934907394 13.851922678166572 9.371280335207434 -1 1 0
809 2 4 0.053 35.59066321746541 14.197620420483709 9.368627437331718 -1 1 0
3433 8 6 -0.531 38.12303801739804 15.4219267924495 7.6281258807125605 0 0 1
806 2 1 -0.159 34.65293470745952 14.742930339536706 9.391718567069304 -1 1 0
3453 8 2 0.172 34.477255342918966 19.822049683739422 4.979056567573954 0 0 1
906 3 4 0.053 34.833727712486095 10.65227390050281 8.91477548871737 -1 0 0
636 2 4 0.053 37.03651318700218 14.242752885727512 11.211441433936944 -1 1 0
354 1 1 -0.159 25.453484607552554 5.123838680835189 7.597274244141522 0 1 -1
3426 8 2 0.172 40.489996217781744 15.063757379267114 7.104445869967078 0 0 1
3425 8 7 -0.396 40.54552519056671 15.177368683159989 5.694690916255113 0 0 1
1649 4 4 0.053 39.66603000095084 11.337885914449828 6.192609021036585 -1 0 0
3427 8 4 0.053 40.277813382340796 13.969785449933026 7.182306666250263 0 0 1
1647 4 1 -0.159 40.33514386299941 10.989608720724814 5.396763995224994 -1 0 0
3432 8 3 0.702 39.26106087592532 15.769983606799958 7.809637667837836 0 0 1
3988 9 1 -0.159 37.754090330019174 22.373579730539543 11.179686218461237 1 0 1
3423 8 3 0.702 40.79722944385457 16.36675538264747 5.099685002852133 0 0 1
3430 8 4 0.053 5.673489677384904 16.40867703537114 7.884368889165547 1 0 1
3756 9 4 0.053 7.361405617796959 17.574246849210425 5.345931850581414 1 0 1
3749 9 3 0.702 7.495280741628475 19.307767516348925 7.6709318995234135 1 0 1
3743 9 2 0.172 6.272316358601545 20.246736462662042 8.084237163888496 1 0 1
3744 9 4 0.053 5.639280342601687 19.55701410673403 8.678478249144938 1 0 1
3750 9 6 -0.531 7.959603872286088 18.436369536733338 8.303757502628148 1 0 1
3751 9 7 -0.396 7.995362112583489 19.71038779494412 6.493122591906262 1 0 1
3745 9 1 -0.159 5.322750257682088 20.710302441049926 6.9641956961392655 1 0 1
3752 9 2 0.172 8.934759278385467 18.980055642055884 5.7539142936012055 1 0 1
3747 9 4 0.053 4.698997066265836 19.93732841209353 6.540400736463248 1 0 1
3748 9 4 0.053 4.683050543252037 21.599890425634587 7.401214005822194 1 0 1
3760 9 7 -0.396 9.98422548017669 16.936337194160643 6.345862563548 1 0 1
3742 9 7 -0.396 6.659578422854699 21.368007466657676 8.89520772823537 1 0 1
3424 8 6 -0.531 40.94920397914325 17.387731323693217 5.72620722861543 0 0 1
3746 9 4 0.053 5.879993412827927 21.100057079932714 6.094665817960129 1 0 1
3758 9 3 0.702 10.097589391199053 18.296234071634018 6.568963853728484 1 0 1
1736 4 4 0.053 16.005297690442312 6.002326135194793 9.43431736160489 0 0 0
8 1 6 -0.531 15.678565874689737 16.44827987710415 10.265058835624869 0 1 0
3759 9 6 -0.531 11.010160826463304 18.72931050897734 7.184870063407029 1 0 1
3790 9 1 -0.159 14.3644118910409 19.160946676733552 6.518064227946727 1 0 1
3791 9 4 0.053 14.36708174769589 18.08212679349247 6.664954328303838 1 0 1
3793 9 4 0.053 14.471038890680354 19.62664218391184 7.521027578524919 1 0 1
2426 6 4 0.053 14.707906650719133 20.907378039331647 9.535694280137033 0 0 0
3792 9 4 0.053 13.366170035231287 19.43588448514213 6.072887192510491 1 0 1
2421 6 6 -0.531 10.828447013055035 21.22909724027855 9.48708228371941 0 0 0
2428 6 4 0.053 13.235932722916335 21.08110382228908 8.702104816608156 0 0 0
3788 9 2 0.172 15.489375111426863 19.552652358961954 5.574928272850813 1 0 1
2425 6 1 -0.159 13.962794931687572 21.662400659064392 9.27751423258832 0 0 0
4414 10 4 0.053 13.279292789651443 21.96549348523799 6.696855121455973 1 0 1
2419 6 4 0.053 10.74522262552088 18.12078746789369 9.88621697385134 0 0 0
4 1 4 0.053 12.194872797573622 15.183728655537822 10.941495579038637 0 1 0
2417 6 4 0.053 12.146429187532163 18.192826848546613 11.03224953865977 0 0 0
987 3 4 0.053 33.05639609884692 22.646500476665487 18.57473865359037 -1 0 0
1733 4 6 -0.531 16.420032952858417 5.078423646708211 6.939035730211144 0 0 0
348 1 4 0.053 21.414470956638528 4.719628986454283 11.80032274949841 0 1 -1
3510 8 4 0.053 21.415141967298357 21.25636581663212 5.061899539310001 0 0 1
3806 9 2 0.172 20.371565072097678 15.922186696231648 6.165962072248151 1 0 1
3807 9 4 0.053 21.321208988750175 16.039625650534823 6.734422337335392 1 0 1
3805 9 7 -0.396 19.44120218944032 16.75411247443297 6.932120034251099 1 0 1
3794 9 3 0.702 16.909160969200123 19.837986613098522 6.2532364124454745 1 0 1
3799 9 1 -0.159 18.534108587814124 18.282944695755468 9.139157668966245 1 0 1
3803 9 3 0.702 19.58695307248454 18.15570747388591 6.88577950858377 1 0 1
3796 9 7 -0.396 17.179470788632187 19.113873029703555 7.369976196440565 1 0 1
3797 9 2 0.172 18.587443259632018 18.917161733811128 7.786384899187899 1 0 1
3798 9 4 0.053 19.052149094236363 19.941006030338798 7.740110198866224 1 0 1
3804 9 6 -0.531 20.456213932818706 18.679245938940323 6.1762611239822345 1 0 1
3795 9 6 -0.531 17.720379891116416 20.649213159495844 5.822497618562691 1 0 1
3786 9 6 -0.531 17.106584849616123 17.40946031155802 5.1869211338791725 1 0 1
3800 9 4 0.053 18.013194106648783 17.269706340123573 9.078641564958225 1 0 1
4057 9 7 -0.396 21.326253544996003 21.375048569960647 9.485509300261153 1 0 1
3802 9 4 0.053 19.551176534908763 18.07392571957366 9.432087812510133 1 0 1
3801 9 4 0.053 17.999095594214225 18.972034270531463 9.758820120521486 1 0 1
357 1 4 0.053 25.958738188582657 4.7020126520726455 8.469072065241996 0 1 -1