units real
atom_style full
boundary p p p

# --- Force Field Styles ---
pair_style lj/class2/coul/long 9.5 9.5
kspace_style pppm 1e-6
dielectric 1.000000
bond_style class2
angle_style class2
dihedral_style class2
improper_style class2
special_bonds lj/coul 0 0 1
pair_modify mix sixthpower tail yes
neighbor 2.0 bin
neigh_modify delay 0 every 1 check yes
neigh_modify one 4000
# KOKKOS: package loaded via -pk kokkos on the command line

read_data /home/arz2/PolyJarvis/data/PSU2/lammps/equil/npt_prod300/npt_prod300_out.data
Reading data file ...
  orthogonal box = (6.0104155 6.0104155 6.0104155) to (55.883166 55.883166 55.883166)
  1 by 1 by 1 MPI processor grid
  reading atoms ...
  10820 atoms
  reading velocities ...
  10820 velocities
  scanning bonds ...
  4 = max bonds/atom
  scanning angles ...
  16 = max angles/atom
  scanning dihedrals ...
  38 = max dihedrals/atom
  scanning impropers ...
  12 = max impropers/atom
  orthogonal box = (6.0104155 6.0104155 6.0104155) to (55.883166 55.883166 55.883166)
  1 by 1 by 1 MPI processor grid
  reading bonds ...
  11610 bonds
  reading angles ...
  19600 angles
  reading dihedrals ...
  29180 dihedrals
  reading impropers ...
  8000 impropers
Finding 1-2 1-3 1-4 neighbors ...
  special bond factors lj:    0        0        1       
  special bond factors coul:  0        0        1       
     4 = max # of 1-2 neighbors
    10 = max # of 1-3 neighbors
    14 = max # of special neighbors
  special bonds CPU = 0.006 seconds
  read_data CPU = 0.363 seconds
include /home/arz2/PolyJarvis/data/PSU2/lammps/equil/emc_build.params
# LAMMPS parameters created by EMC v9.4.4, build Jul 31 2025 20:33:44

# Variables

variable	seed		index	820419
variable	ntotal		index	10820
variable	fshape		index	1
variable	output		index	emc_build
variable	field		index	pcff/pcff
variable	location1	index	/home/arz2/emc/field/
variable	nav		index	0.6022141179
variable	temperature	index	300
variable	radius		index	5
variable	nrelax		index	100
variable	weight_nonbond	index	0.0001
variable	weight_bond	index	0.0001
variable	weight_focus	index	1
variable	cutoff		index	9.5
variable	charge_cutoff	index	9.5
variable	kappa		index	4
variable	density1	index	0.62
variable	lprevious	index	0
variable	lphase		index	61.8935814259
variable	f_poly		index	10
variable	chem_repeat	index	*Oc1ccc(C(C)(C)c2ccc(Oc3ccc(S(=O)(=O)c4ccc(*)cc4)cc3)cc2)cc1
variable	chem_cap	index	*[H]
variable	lg_repeat	index	54
variable	lg_cap		index	1
variable	norm_poly	index	100
variable	l_poly		index	1082
variable	mg_repeat	index	414.52744
variable	mg_cap		index	0
variable	m_poly		index	8290.5488
variable	n_poly		index	10
variable	mtotal		index	88527.7574
variable	nphase1		index	10820
variable	mphase1		index	88527.7574
variable	vphase1		index	237102.886232
variable	lbox		index	61.8935814259
variable	lphase1		index	61.8935814259
variable	lxx		index	61.8935814259
variable	lyy		index	61.8935814259
variable	lzz		index	61.8935814259
variable	lzy		index	0
variable	lzx		index	0
variable	lyx		index	0
variable	vtotal		index	237102.886232
variable	nl_poly		index	10

# Types

variable	type_c		index	1
variable	type_cp		index	2
variable	type_hc		index	3
variable	type_ho		index	4
variable	type_oe		index	5
variable	type_oc		index	6
variable	type_oh		index	7
variable	type_sf		index	8

variable	type_bond_c_c	index	1
variable	type_bond_c_cp	index	2
variable	type_bond_c_hc	index	3
variable	type_bond_cp_cp	index	4
variable	type_bond_cp_hc	index	5
variable	type_bond_cp_oc	index	6
variable	type_bond_cp_oh	index	7
variable	type_bond_cp_sf	index	8
variable	type_bond_ho_oh	index	9
variable	type_bond_oe_sf	index	10

variable	type_angle_c_c_c index	1
variable	type_angle_c_c_cp index	2
variable	type_angle_c_c_hc index	3
variable	type_angle_c_cp_cp index	4
variable	type_angle_cp_c_cp index	5
variable	type_angle_cp_cp_cp index	6
variable	type_angle_cp_cp_hc index	7
variable	type_angle_cp_cp_oc index	8
variable	type_angle_cp_cp_oh index	9
variable	type_angle_cp_cp_sf index	10
variable	type_angle_cp_oc_cp index	11
variable	type_angle_cp_oh_ho index	12
variable	type_angle_cp_sf_cp index	13
variable	type_angle_cp_sf_oe index	14
variable	type_angle_hc_c_hc index	15
variable	type_angle_oe_sf_oe index	16

# Clusters

variable	n0_poly		index	1
variable	n1_poly		index	10
variable	nl_poly		index	10

# Flags

variable	flag_charged	index	1

# Masses

mass		1    12.01115  # c
mass		2    12.01115  # cp
mass		3     1.00797  # hc
mass		4     1.00797  # ho
mass		5    15.99940  # o=
mass		6    15.99940  # oc
mass		7    15.99940  # oh
mass		8    32.06400  # sf

# Potentials

pair_modify	mix sixthpower tail yes
special_bonds	lj/coul 0 0 1

# Pair Coeffs

pair_coeff	 1  1    0.05400    4.01000  # c,c
pair_coeff	 2  2    0.06400    4.01000  # cp,cp
pair_coeff	 3  3    0.02000    2.99500  # hc,hc
pair_coeff	 4  4    0.01300    1.09800  # ho,ho
pair_coeff	 5  5    0.06000    3.53500  # o=,o=
pair_coeff	 6  6    0.24000    3.53500  # oc,oc
pair_coeff	 7  7    0.24000    3.53500  # oh,oh
pair_coeff	 8  8    0.25000    4.02700  # sf,sf

# Bond Coeffs

bond_coeff	 1    1.53000  299.67000 -501.77000  679.81000  # c,c
bond_coeff	 2    1.50100  321.90210 -521.82080  572.16280  # c,cp
bond_coeff	 3    1.10100  345.00000 -691.89000  844.60000  # c,hc
bond_coeff	 4    1.41700  470.83610 -627.61790 1327.63450  # cp,cp
bond_coeff	 5    1.09820  372.82510 -803.45260  894.31730  # cp,hc
bond_coeff	 6    1.37680  428.87980 -738.23510 1114.96550  # cp,oc
bond_coeff	 7    1.37680  428.87980 -738.23510 1114.96550  # cp,oh
bond_coeff	 8    1.72000  239.80240    0.00000    0.00000  # cp,sf
bond_coeff	 9    0.96500  532.50620 -1282.90500 2004.76580  # ho,oh
bond_coeff	10    1.43080  743.76000    0.00000    0.00000  # o=,sf

# Angle Coeffs

angle_coeff	 1  112.67000   39.51600   -7.44300   -9.55830  # c,c,c
angle_coeff	 2  108.40000   43.95940   -8.39240   -9.33790  # c,c,cp
angle_coeff	 3  110.77000   41.45300  -10.60400    5.12900  # c,c,hc
angle_coeff	 4  120.05000   44.71480  -22.73520    0.00000  # c,cp,cp
angle_coeff	 5  111.00000   44.32340   -9.44540    0.00000  # cp,c,cp
angle_coeff	 6  118.90000   61.02260  -34.99310    0.00000  # cp,cp,cp
angle_coeff	 7  117.94000   35.15580  -12.46820    0.00000  # cp,cp,hc
angle_coeff	 8  123.42000   73.67810  -21.67870    0.00000  # cp,cp,oc
angle_coeff	 9  123.42000   73.67810  -21.67870    0.00000  # cp,cp,oh
angle_coeff	10  120.00000   60.00000    0.00000    0.00000  # cp,cp,sf
angle_coeff	11  109.50000   60.00000    0.00000    0.00000  # cp,oc,cp
angle_coeff	12  108.19000   53.12500   -8.50160    0.00000  # cp,oh,ho
angle_coeff	13  102.00000   58.00000    0.00000    0.00000  # cp,sf,cp
angle_coeff	14  113.10000   42.30000    0.00000    0.00000  # cp,sf,o=
angle_coeff	15  107.66000   39.64100  -12.92100   -2.43180  # hc,c,hc
angle_coeff	16  119.32900  135.00000    0.00000    0.00000  # o=,sf,o=

# BondBond Coeffs

angle_coeff	 1 bb    0.00000    1.53000    1.53000  # c,c,c
angle_coeff	 2 bb    0.00000    1.53000    1.50100  # c,c,cp
angle_coeff	 3 bb    3.38720    1.53000    1.10100  # c,c,hc
angle_coeff	 4 bb   12.06760    1.50100    1.41700  # c,cp,cp
angle_coeff	 5 bb    0.00000    1.50100    1.50100  # cp,c,cp
angle_coeff	 6 bb   68.28560    1.41700    1.41700  # cp,cp,cp
angle_coeff	 7 bb    1.07950    1.41700    1.09820  # cp,cp,hc
angle_coeff	 8 bb   48.47540    1.41700    1.37680  # cp,cp,oc
angle_coeff	 9 bb   48.47540    1.41700    1.37680  # cp,cp,oh
angle_coeff	10 bb    0.00000    1.41700    1.72000  # cp,cp,sf
angle_coeff	11 bb    0.00000    1.37680    1.37680  # cp,oc,cp
angle_coeff	12 bb   20.65770    1.37680    0.96500  # cp,oh,ho
angle_coeff	13 bb    0.00000    1.72000    1.72000  # cp,sf,cp
angle_coeff	14 bb    0.00000    1.72000    1.43080  # cp,sf,o=
angle_coeff	15 bb    5.33160    1.10100    1.10100  # hc,c,hc
angle_coeff	16 bb   40.00000    1.43080    1.43080  # o=,sf,o=

# BondAngle Coeffs

angle_coeff	 1 ba    8.01600    8.01600    1.53000    1.53000  # c,c,c
angle_coeff	 2 ba    0.00000    0.00000    1.53000    1.50100  # c,c,cp
angle_coeff	 3 ba   20.75400   11.42100    1.53000    1.10100  # c,c,hc
angle_coeff	 4 ba   47.05790   31.07710    1.50100    1.41700  # c,cp,cp
angle_coeff	 5 ba    0.00000    0.00000    1.50100    1.50100  # cp,c,cp
angle_coeff	 6 ba   28.87080   28.87080    1.41700    1.41700  # cp,cp,cp
angle_coeff	 7 ba   20.00330   24.21830    1.41700    1.09820  # cp,cp,hc
angle_coeff	 8 ba   58.47900  107.68060    1.41700    1.37680  # cp,cp,oc
angle_coeff	 9 ba   58.47900  107.68060    1.41700    1.37680  # cp,cp,oh
angle_coeff	10 ba    0.00000    0.00000    1.41700    1.72000  # cp,cp,sf
angle_coeff	11 ba    0.00000    0.00000    1.37680    1.37680  # cp,oc,cp
angle_coeff	12 ba   53.86140   23.92240    1.37680    0.96500  # cp,oh,ho
angle_coeff	13 ba    0.00000    0.00000    1.72000    1.72000  # cp,sf,cp
angle_coeff	14 ba    0.00000    0.00000    1.72000    1.43080  # cp,sf,o=
angle_coeff	15 ba   18.10300   18.10300    1.10100    1.10100  # hc,c,hc
angle_coeff	16 ba    0.00000    0.00000    1.43080    1.43080  # o=,sf,o=

# Dihedral Coeffs

dihedral_coeff	 1    0.00000    0.00000    0.03160    0.00000   -0.16810    0.00000  # c,c,c,hc
dihedral_coeff	 2   -0.28020    0.00000   -0.06780    0.00000   -0.01220    0.00000  # c,c,cp,cp
dihedral_coeff	 3    0.00000    0.00000    4.40720    0.00000    0.00000    0.00000  # c,cp,cp,cp
dihedral_coeff	 4    0.00000    0.00000    1.55900    0.00000    0.00000    0.00000  # c,cp,cp,hc
dihedral_coeff	 5   -0.02280    0.00000    0.02800    0.00000   -0.18630    0.00000  # cp,c,c,hc
dihedral_coeff	 6   -0.28020    0.00000   -0.06780    0.00000   -0.01220    0.00000  # cp,c,cp,cp
dihedral_coeff	 7    8.36670    0.00000    1.19320    0.00000    0.00000    0.00000  # cp,cp,cp,cp
dihedral_coeff	 8    0.00000    0.00000    3.96610    0.00000    0.00000    0.00000  # cp,cp,cp,hc
dihedral_coeff	 9    0.00000    0.00000    4.84980    0.00000    0.00000    0.00000  # cp,cp,cp,oc
dihedral_coeff	10    0.00000    0.00000    4.84980    0.00000    0.00000    0.00000  # cp,cp,cp,oh
dihedral_coeff	11    0.00000    0.00000    3.00000    0.00000    0.00000    0.00000  # cp,cp,cp,sf
dihedral_coeff	12    0.00000    0.00000    1.80000    0.00000    0.00000    0.00000  # cp,cp,oc,cp
dihedral_coeff	13   -0.69000    0.00000    0.50970    0.00000    0.00950    0.00000  # cp,cp,oh,ho
dihedral_coeff	14    0.00000    0.00000    1.50000    0.00000    0.00000    0.00000  # cp,cp,sf,cp
dihedral_coeff	15    0.00000    0.00000    1.50000    0.00000    0.00000    0.00000  # cp,cp,sf,o=
dihedral_coeff	16    0.00000    0.00000    1.87690    0.00000    0.00000    0.00000  # hc,cp,cp,hc
dihedral_coeff	17    0.00000    0.00000    1.72340    0.00000    0.00000    0.00000  # hc,cp,cp,oc
dihedral_coeff	18    0.00000    0.00000    1.72340    0.00000    0.00000    0.00000  # hc,cp,cp,oh
dihedral_coeff	19    0.00000    0.00000    3.00000    0.00000    0.00000    0.00000  # hc,cp,cp,sf

# MiddleBondTorsion Coeffs

dihedral_coeff	 1 mbt  -14.87900   -3.65810   -0.31380    1.53000  # c,c,c,hc
dihedral_coeff	 2 mbt    0.00000    0.00000    0.00000    1.50100  # c,c,cp,cp
dihedral_coeff	 3 mbt    0.00000    9.17920    0.00000    1.41700  # c,cp,cp,cp
dihedral_coeff	 4 mbt    0.00000    3.94210    0.00000    1.41700  # c,cp,cp,hc
dihedral_coeff	 5 mbt    0.00000    0.00000    0.00000    1.53000  # cp,c,c,hc
dihedral_coeff	 6 mbt    0.00000    0.00000    0.00000    1.50100  # cp,c,cp,cp
dihedral_coeff	 7 mbt   27.59890   -2.31200    0.00000    1.41700  # cp,cp,cp,cp
dihedral_coeff	 8 mbt    0.00000   -1.15210    0.00000    1.41700  # cp,cp,cp,hc
dihedral_coeff	 9 mbt    0.00000    4.82550    0.00000    1.41700  # cp,cp,cp,oc
dihedral_coeff	10 mbt    0.00000    4.82550    0.00000    1.41700  # cp,cp,cp,oh
dihedral_coeff	11 mbt    0.00000    0.00000    0.00000    1.41700  # cp,cp,cp,sf
dihedral_coeff	12 mbt    0.00000    0.00000    0.00000    1.37680  # cp,cp,oc,cp
dihedral_coeff	13 mbt    1.15800    3.26970    3.51320    1.37680  # cp,cp,oh,ho
dihedral_coeff	14 mbt    0.00000    0.00000    0.00000    1.72000  # cp,cp,sf,cp
dihedral_coeff	15 mbt    0.00000    0.00000    0.00000    1.72000  # cp,cp,sf,o=
dihedral_coeff	16 mbt    0.00000    4.82280    0.00000    1.41700  # hc,cp,cp,hc
dihedral_coeff	17 mbt    0.00000    5.54320    0.00000    1.41700  # hc,cp,cp,oc
dihedral_coeff	18 mbt    0.00000    5.54320    0.00000    1.41700  # hc,cp,cp,oh
dihedral_coeff	19 mbt    0.00000    0.00000    0.00000    1.41700  # hc,cp,cp,sf

# EndBondTorsion Coeffs

dihedral_coeff	 1 ebt    0.24860    0.24220   -0.09250    0.08140    0.05910    0.22190    1.53000    1.10100  # c,c,c,hc
dihedral_coeff	 2 ebt    0.00000    0.00000    0.00000    0.00000    0.00000    0.00000    1.53000    1.41700  # c,c,cp,cp
dihedral_coeff	 3 ebt    0.00000    0.24210    0.00000    0.00000   -0.69180    0.00000    1.50100    1.41700  # c,cp,cp,cp
dihedral_coeff	 4 ebt    0.00000   -1.79700    0.00000    0.00000   -0.48790    0.00000    1.50100    1.09820  # c,cp,cp,hc
dihedral_coeff	 5 ebt    0.00000    0.00000    0.00000    0.00000    0.00000    0.00000    1.50100    1.10100  # cp,c,c,hc
dihedral_coeff	 6 ebt    0.00000    0.00000    0.00000    0.00000    0.00000    0.00000    1.50100    1.41700  # cp,c,cp,cp
dihedral_coeff	 7 ebt   -0.11850    6.32040    0.00000   -0.11850    6.32040    0.00000    1.41700    1.41700  # cp,cp,cp,cp
dihedral_coeff	 8 ebt    0.00000   -6.89580    0.00000    0.00000   -0.46690    0.00000    1.41700    1.09820  # cp,cp,cp,hc
dihedral_coeff	 9 ebt    0.00000    0.26550    0.00000    0.00000    4.89050    0.00000    1.41700    1.37680  # cp,cp,cp,oc
dihedral_coeff	10 ebt    0.00000    0.26550    0.00000    0.00000    4.89050    0.00000    1.41700    1.37680  # cp,cp,cp,oh
dihedral_coeff	11 ebt    0.00000    0.00000    0.00000    0.00000    0.00000    0.00000    1.41700    1.72000  # cp,cp,cp,sf
dihedral_coeff	12 ebt    0.00000    0.00000    0.00000    0.00000    0.00000    0.00000    1.41700    1.37680  # cp,cp,oc,cp
dihedral_coeff	13 ebt    0.90000   -1.34560    1.19000    3.41320    0.58730   -0.13230    1.41700    0.96500  # cp,cp,oh,ho
dihedral_coeff	14 ebt    0.00000    0.00000    0.00000    0.00000    0.00000    0.00000    1.41700    1.72000  # cp,cp,sf,cp
dihedral_coeff	15 ebt    0.00000    0.00000    0.00000    0.00000    0.00000    0.00000    1.41700    1.43080  # cp,cp,sf,o=
dihedral_coeff	16 ebt    0.00000   -0.68900    0.00000    0.00000   -0.68900    0.00000    1.09820    1.09820  # hc,cp,cp,hc
dihedral_coeff	17 ebt    0.00000   -1.58670    0.00000    0.00000    4.26410    0.00000    1.09820    1.37680  # hc,cp,cp,oc
dihedral_coeff	18 ebt    0.00000   -1.58670    0.00000    0.00000    4.26410    0.00000    1.09820    1.37680  # hc,cp,cp,oh
dihedral_coeff	19 ebt    0.00000    0.00000    0.00000    0.00000    0.00000    0.00000    1.09820    1.72000  # hc,cp,cp,sf

# AngleTorsion Coeffs

dihedral_coeff	 1 at   -0.24540    0.00000   -0.11360    0.31130    0.45160   -0.19880  112.67000  110.77000  # c,c,c,hc
dihedral_coeff	 2 at    0.00000    0.00000    0.00000    0.00000    0.00000    0.00000  108.40000  120.05000  # c,c,cp,cp
dihedral_coeff	 3 at    0.00000   -4.46830    0.00000    0.00000    3.89870    0.00000  120.05000  118.90000  # c,cp,cp,cp
dihedral_coeff	 4 at    0.00000   -0.12420    0.00000    0.00000    3.46010    0.00000  120.05000  117.94000  # c,cp,cp,hc
dihedral_coeff	 5 at    0.00000    0.00000    0.00000    0.00000    0.00000    0.00000  108.40000  110.77000  # cp,c,c,hc
dihedral_coeff	 6 at    0.00000    0.00000    0.00000    0.00000    0.00000    0.00000  111.00000  120.05000  # cp,c,cp,cp
dihedral_coeff	 7 at    1.97670    1.02390    0.00000    1.97670    1.02390    0.00000  118.90000  118.90000  # cp,cp,cp,cp
dihedral_coeff	 8 at    0.00000    2.50140    0.00000    0.00000    2.71470    0.00000  118.90000  117.94000  # cp,cp,cp,hc
dihedral_coeff	 9 at    0.00000   10.01550    0.00000    0.00000    1.74040    0.00000  118.90000  123.42000  # cp,cp,cp,oc
dihedral_coeff	10 at    0.00000   10.01550    0.00000    0.00000    1.74040    0.00000  118.90000  123.42000  # cp,cp,cp,oh
dihedral_coeff	11 at    0.00000    0.00000    0.00000    0.00000    0.00000    0.00000  118.90000  120.00000  # cp,cp,cp,sf
dihedral_coeff	12 at    0.00000    0.00000    0.00000    0.00000    0.00000    0.00000  123.42000  109.50000  # cp,cp,oc,cp
dihedral_coeff	13 at   -5.13600   -1.01220    0.00000    4.68520    0.02300   -0.59800  123.42000  108.19000  # cp,cp,oh,ho
dihedral_coeff	14 at    0.00000    0.00000    0.00000    0.00000    0.00000    0.00000  120.00000  102.00000  # cp,cp,sf,cp
dihedral_coeff	15 at    0.00000    0.00000    0.00000    0.00000    0.00000    0.00000  120.00000  113.10000  # cp,cp,sf,o=
dihedral_coeff	16 at    0.00000    2.45010    0.00000    0.00000    2.45010    0.00000  117.94000  117.94000  # hc,cp,cp,hc
dihedral_coeff	17 at    0.00000    1.87290    0.00000    0.00000    2.57060    0.00000  117.94000  123.42000  # hc,cp,cp,oc
dihedral_coeff	18 at    0.00000    1.87290    0.00000    0.00000    2.57060    0.00000  117.94000  123.42000  # hc,cp,cp,oh
dihedral_coeff	19 at    0.00000    0.00000    0.00000    0.00000    0.00000    0.00000  117.94000  120.00000  # hc,cp,cp,sf

# AngleAngleTorsion Coeffs

dihedral_coeff	 1 aat  -16.16400  112.67000  110.77000  # c,c,c,hc
dihedral_coeff	 2 aat    0.00000  108.40000  120.05000  # c,c,cp,cp
dihedral_coeff	 3 aat  -14.40970  120.05000  118.90000  # c,cp,cp,cp
dihedral_coeff	 4 aat    4.44440  120.05000  117.94000  # c,cp,cp,hc
dihedral_coeff	 5 aat    0.00000  108.40000  110.77000  # cp,c,c,hc
dihedral_coeff	 6 aat    0.00000  111.00000  120.05000  # cp,c,cp,cp
dihedral_coeff	 7 aat    0.00000  118.90000  118.90000  # cp,cp,cp,cp
dihedral_coeff	 8 aat   -4.81410  118.90000  117.94000  # cp,cp,cp,hc
dihedral_coeff	 9 aat  -21.02470  118.90000  123.42000  # cp,cp,cp,oc
dihedral_coeff	10 aat  -21.02470  118.90000  123.42000  # cp,cp,cp,oh
dihedral_coeff	11 aat    0.00000  118.90000  120.00000  # cp,cp,cp,sf
dihedral_coeff	12 aat    0.00000  123.42000  109.50000  # cp,cp,oc,cp
dihedral_coeff	13 aat   -4.60720  123.42000  108.19000  # cp,cp,oh,ho
dihedral_coeff	14 aat    0.00000  120.00000  102.00000  # cp,cp,sf,cp
dihedral_coeff	15 aat    0.00000  120.00000  113.10000  # cp,cp,sf,o=
dihedral_coeff	16 aat    0.35980  117.94000  117.94000  # hc,cp,cp,hc
dihedral_coeff	17 aat    4.22960  117.94000  123.42000  # hc,cp,cp,oc
dihedral_coeff	18 aat    4.22960  117.94000  123.42000  # hc,cp,cp,oh
dihedral_coeff	19 aat    0.00000  117.94000  120.00000  # hc,cp,cp,sf

# BondBond13 Coeffs

dihedral_coeff	 1 bb13    0.00000    1.53000    1.10100  # c,c,c,hc
dihedral_coeff	 2 bb13    0.00000    1.53000    1.41700  # c,c,cp,cp
dihedral_coeff	 3 bb13    2.50850    1.50100    1.41700  # c,cp,cp,cp
dihedral_coeff	 4 bb13    0.87430    1.50100    1.09820  # c,cp,cp,hc
dihedral_coeff	 5 bb13    0.00000    1.50100    1.10100  # cp,c,c,hc
dihedral_coeff	 6 bb13    0.00000    1.50100    1.41700  # cp,c,cp,cp
dihedral_coeff	 7 bb13   53.00000    1.41700    1.41700  # cp,cp,cp,cp
dihedral_coeff	 8 bb13   -6.27410    1.41700    1.09820  # cp,cp,cp,hc
dihedral_coeff	 9 bb13   -2.24360    1.41700    1.37680  # cp,cp,cp,oc
dihedral_coeff	10 bb13   -2.24360    1.41700    1.37680  # cp,cp,cp,oh
dihedral_coeff	11 bb13    0.00000    1.41700    1.72000  # cp,cp,cp,sf
dihedral_coeff	12 bb13    0.00000    1.41700    1.37680  # cp,cp,oc,cp
dihedral_coeff	13 bb13    1.15900    1.41700    0.96500  # cp,cp,oh,ho
dihedral_coeff	14 bb13    0.00000    1.41700    1.72000  # cp,cp,sf,cp
dihedral_coeff	15 bb13    0.00000    1.41700    1.43080  # cp,cp,sf,o=
dihedral_coeff	16 bb13   -1.70770    1.09820    1.09820  # hc,cp,cp,hc
dihedral_coeff	17 bb13    2.05170    1.09820    1.37680  # hc,cp,cp,oc
dihedral_coeff	18 bb13    2.05170    1.09820    1.37680  # hc,cp,cp,oh
dihedral_coeff	19 bb13    0.00000    1.09820    1.72000  # hc,cp,cp,sf

# Improper Coeffs

improper_coeff	 1    0.00000    0.00000  # c,c,c,cp
improper_coeff	 2    0.00000    0.00000  # c,c,cp,cp
improper_coeff	 3    0.00000    0.00000  # c,c,hc,hc
improper_coeff	 4    0.00000    0.00000  # c,hc,hc,hc
improper_coeff	 5    7.81530    0.00000  # cp,c,cp,cp
improper_coeff	 6    4.89120    0.00000  # cp,cp,cp,hc
improper_coeff	 7   13.04210    0.00000  # cp,cp,cp,oc
improper_coeff	 8   13.04210    0.00000  # cp,cp,cp,oh
improper_coeff	 9    0.00000    0.00000  # cp,cp,cp,sf
improper_coeff	10    0.00000    0.00000  # sf,cp,cp,o=
improper_coeff	11    0.00000    0.00000  # sf,cp,o=,o=

# AngleAngle Coeffs

improper_coeff	 1 aa    0.00000    0.00000    0.00000  112.67000  108.40000  108.40000  # c,c,c,cp
improper_coeff	 2 aa    0.00000    0.00000    0.00000  108.40000  108.40000  111.00000  # c,c,cp,cp
improper_coeff	 3 aa    0.27380   -0.48250    0.27380  110.77000  110.77000  107.66000  # c,c,hc,hc
improper_coeff	 4 aa   -0.31570   -0.31570   -0.31570  107.66000  107.66000  107.66000  # c,hc,hc,hc
improper_coeff	 5 aa    0.00000    0.00000    0.00000  120.05000  120.05000  118.90000  # cp,c,cp,cp
improper_coeff	 6 aa    0.00000    0.00000    0.00000  118.90000  117.94000  117.94000  # cp,cp,cp,hc
improper_coeff	 7 aa    0.00000    0.00000    0.00000  118.90000  123.42000  123.42000  # cp,cp,cp,oc
improper_coeff	 8 aa    0.00000    0.00000    0.00000  118.90000  123.42000  123.42000  # cp,cp,cp,oh
improper_coeff	 9 aa    0.00000    0.00000    0.00000  118.90000  120.00000  120.00000  # cp,cp,cp,sf
improper_coeff	10 aa    0.00000    0.00000    0.00000  102.00000  113.10000  113.10000  # sf,cp,cp,o=
improper_coeff	11 aa    0.00000    0.00000    0.00000  113.10000  113.10000  119.32900  # sf,cp,o=,o=


# --- Thermo Output ---
thermo_style custom step time temp press enthalpy etotal ke pe ebond eangle edihed eimp evdwl ecoul elong etail vol lx ly lz density pxx pyy pzz
thermo_modify flush yes
thermo 1000

# --- Trajectory ---
dump dump_npt all custom 1000 npt_extend.dump id type mol x y z ix iy iz vx vy vz

# --- Restart Checkpointing ---
# No restart checkpointing

# --- Initial Velocities (optional) ---
# Velocities read from data file

# --- SHAKE Constraints ---
# SHAKE disabled

# --- NPT Thermostat + Barostat (Nose-Hoover) ---
# T_damp = 100.0 fs  (heat bath coupling)
# P_damp = 1000.0 fs  (pressure bath coupling, ~10x T_damp typical)
# Ramp: T=300.0->300.0K  P=1.0->1.0atm
timestep 1.0
fix npt_fix all npt temp 300.0 300.0 100.0 iso 1.0 1.0 1000.0

run 2000000
PPPM Kokkos initialization ...
  using 12-bit tables for long-range coulomb
  G vector (1/distance) = 0.3020102
  grid = 36 36 36
  stencil order = 5
  estimated absolute RMS force accuracy = 0.00028943354
  estimated relative force accuracy = 8.7162051e-07
  using double precision cuFFT
  3d grid and FFT values/proc = 79507 46656
Generated 28 of 28 mixed pair_coeff terms from sixthpower/sixthpower mixing rule
Neighbor list info ...
  update: every = 1 steps, delay = 0 steps, check = yes
  max neighbors/atom: 4000, page size: 100000
  master list distance cutoff = 11.5
  ghost atom cutoff = 11.5
  binsize = 11.5, bins = 5 5 5
  1 neighbor lists, perpetual/occasional/extra = 1 0 0
  (1) pair lj/class2/coul/long/kk, perpetual
      attributes: full, newton off, kokkos_device
      pair build: full/bin/kk/device
      stencil: full/bin/3d
      bin: kk/device
Per MPI rank memory allocation (min/avg/max) = 63.61 | 63.61 | 63.61 Mbytes
   Step          Time           Temp          Press         Enthalpy        TotEng         KinEng         PotEng         E_bond        E_angle        E_dihed        E_impro         E_vdwl         E_coul         E_long         E_tail         Volume           Lx             Ly             Lz          Density          Pxx            Pyy            Pzz      
         0   0              300.36251      303.62134      24706.999      24157.713      9686.5059      14471.207      4945.6345      5047.7355      3708.2193      393.15156     -572.64231      8141.5533     -7192.4444     -881.54659      124048.05      49.87275       49.87275       49.87275       1.1850552      1006.3504     -47.039764     -48.446604    
      1000   1000           300.21383      518.55012      25023.295      24088.429      9681.711       14406.718      4948.3237      5071.9852      3665.009       384.69893     -588.63108      8123.439      -7198.1071     -884.61097      123618.34      49.815096      49.815096      49.815096      1.1891746      21.282949      1195.7609      338.60648    
      2000   2000           302.97965      442.44108      25048.097      24250.278      9770.9069      14479.371      5009.9926      5055.7208      3698.9246      364.90549     -585.40533      8131.945      -7196.712      -884.42705      123644.05      49.818549      49.818549      49.818549      1.1889273      710.44941      726.31352     -109.4397     
      3000   3000           299.93193      368.2265       24793.679      24131.511      9672.6201      14458.891      4906.6353      5045.4632      3747.1539      381.48748     -550.629        8124.1106     -7195.3302     -886.86684      123303.9       49.772823      49.772823      49.772823      1.1922071      198.92712      969.75674     -64.004355    
      4000   4000           301.40427     -276.23046      23743.683      24242.261      9720.1021      14522.159      4952.3339      5010.258       3879.7656      382.05049     -647.97016      8141.6308     -7195.91       -883.58785      123761.48      49.834316      49.834316      49.834316      1.1877992     -1523.7753      178.9246       516.15928    
      5000   5000           297.84548      2224.5132      28094.632      24073.416      9605.3334      14468.083      4962.3472      5098.4234      3576.7692      375.52044     -497.89048      8149.405      -7196.4921     -882.24393      123950.01      49.859607      49.859607      49.859607      1.1859926      1512.7318      2671.2096      2489.5983    
      6000   6000           299.59465      357.75405      24936.671      24289.645      9661.743       14627.902      5049.9143      5082.1724      3716.6608      392.74878     -549.75799      8134.8256     -7198.6621     -881.808        124011.28      49.867822      49.867822      49.867822      1.1854066      391.09237      925.50902     -243.33923    
      7000   7000           300.43101     -197.14537      23829.912      24184.678      9688.7151      14495.963      4929.5943      5022.996       3735.8129      398.45729     -546.00407      8149.2833     -7194.1764     -886.24746      123390.07      49.784415      49.784415      49.784415      1.1913745     -199.2994       754.48648     -1146.6232    
      8000   8000           298.72417     -472.10526      23299.563      24152.782      9633.6706      14519.111      4962.1095      5044.9821      3781.2303      379.23126     -590.04338      8137.5715     -7195.9699     -882.44849      123921.27      49.855754      49.855754      49.855754      1.1862676     -449.01668     -549.11367     -418.18543    
      9000   9000           297.77827     -489.64728      23274.924      24160.607      9603.1658      14557.441      4851.7633      5077.4851      3875.0697      391.23027     -587.82497      8146.2927     -7196.5751     -881.69046      124027.81      49.870038      49.870038      49.870038      1.1852485     -997.49103      36.05331      -507.50413    
     10000   10000          299.59854      732.04169      25642.237      24318          9661.8684      14656.132      5018.9717      5065.1444      3806.414       391.06256     -573.7311       8147.0505     -7198.7804     -881.61995      124037.73      49.871367      49.871367      49.871367      1.1851538      654.69487      1033.0727      508.35751    
     11000   11000          295.94951      313.7362       24627.881      24057.97       9544.1894      14513.78       4909.9571      5042.717       3765.2679      390.09086     -520.46646      8122.8907     -7196.6766     -877.94805      124556.5       49.940797      49.940797      49.940797      1.1802177     -305.8741       423.65671      823.426      
     12000   12000          301.17726      781.55382      25690.539      24273.522      9712.7811      14560.741      5029.7259      5003.6291      3721.5078      378.20077     -531.51073      8152.612      -7193.4243     -879.61922      124319.86      49.90915       49.90915       49.90915       1.1824642      368.3845       1082.944       893.33301    
     13000   13000          299.24132      897.17124      25701.087      24084.606      9650.3481      14434.258      4857.0382      5073.9168      3750.7433      388.2576      -587.13762      8149.5133     -7198.0735     -885.14809      123543.33      49.805018      49.805018      49.805018      1.1898966      1897.5053      933.17357     -139.16511    
     14000   14000          302.72105      1290.232       26671.743      24335.414      9762.5672      14572.847      4974.7256      5010.125       3793.0535      389.50255     -515.29533      8119.895      -7199.1595     -880.73428      124162.47      49.888078      49.888078      49.888078      1.1839632      1696.5319      983.18743      1190.9768    
     15000   15000          299.00404      604.70009      25227.958      24134.764      9642.6962      14492.068      4961.2734      5061.8634      3685.2555      380.78351     -539.4916       8138.2946     -7195.9108     -882.17324      123959.94      49.860939      49.860939      49.860939      1.1858975      912.52799      436.24616      465.32611    
     16000   16000          300.09206      221.23076      24700.806      24299.665      9677.7841      14621.881      4984.4666      5088.5215      3736.7995      371.87341     -498.58769      8132.9458     -7194.1384     -879.54804      124329.92      49.910496      49.910496      49.910496      1.1823685      270.09031      966.68701     -573.08504    
     17000   17000          302.48339     -63.897778      24140.545      24256.466      9754.9029      14501.563      4965.9567      5034.3908      3761.2773      374.83547     -566.2148       8129.7622     -7198.4447     -879.09453      124394.06      49.919077      49.919077      49.919077      1.1817589     -566.73878      411.3915      -36.346062    
     18000   18000          295.2517       1962.4899      27664.376      24115.794      9521.6855      14594.108      4970.9598      5172.899       3675.214       393.83552     -563.67352      8142.5343     -7197.6605     -881.99008      123985.68      49.86439       49.86439       49.86439       1.1856513      2323.1189      2344.398       1219.9529    
     19000   19000          301.62551      289.40606      24775.472      24247.926      9727.237       14520.689      5044.8902      5054.5565      3631.2928      369.88        -520.32064      8133.5162     -7193.1258     -874.8997       124990.49      49.998732      49.998732      49.998732      1.1761198      15.27584       197.92247      655.01986    
     20000   20000          302.66652     -444.20872      23541.204      24346.952      9760.8089      14586.143      4968.7918      5028.9336      3809.7889      383.30902     -542.49038      8135.9187     -7198.1081     -879.22269      124375.93      49.916652      49.916652      49.916652      1.1819312     -62.106576      266.81769     -1537.3373    
     21000   21000          296.29074      768.03775      25520.994      24129.676      9555.1939      14574.482      5010.0059      5014.3662      3740.1092      388.15439     -524.53719      8140.0054     -7193.622      -880.37432      124213.23      49.894877      49.894877      49.894877      1.1834793      1156.7917      544.38707      602.93446    
     22000   22000          296.61294      330.35672      24627.42       24026.195      9565.5846      14460.61       4946.4079      4995.1269      3763.9469      381.74344     -549.87755      8120.5102     -7197.2477     -876.30915      124789.45      49.971911      49.971911      49.971911      1.1780145      886.7614       835.11707     -730.80833    
     23000   23000          300.86915      35.023924      24319.243      24256.072      9702.8447      14553.227      4895.4827      5137.9345      3773.8485      376.25702     -577.23576      8141.6765     -7194.7359     -884.21516      123673.68      49.822528      49.822528      49.822528      1.1886425     -466.69431      1086.396      -514.62989    
     24000   24000          296.66234      274.25169      24564.537      24070.131      9567.1776      14502.953      4977.5377      4988.8791      3780.2248      384.49994     -568.2084       8140.8954     -7200.8752     -884.65981      123611.52      49.814179      49.814179      49.814179      1.1892402     -498.4085       628.75695      692.40663    
     25000   25000          303.73703      75.074857      24448.976      24313.755      9795.332       14518.423      4879.3775      5066.1147      3809.5657      374.55008     -550.26768      8135.2328     -7196.1503     -885.44382      123502.07      49.799472      49.799472      49.799472      1.1902942      543.61602     -296.75685     -21.634603    
     26000   26000          300.94056      982.73126      26075.091      24295.622      9705.1475      14590.475      4966.5397      5144.3444      3694.1682      381.63671     -546.00688      8145.5564     -7195.7636     -880.75598      124159.41      49.887669      49.887669      49.887669      1.1839923      1977.5555      571.03262      399.60565    
     27000   27000          298.53173      389.8397       24744.387      24039.189      9627.4643      14411.724      4907.085       5021.273       3725.6801      376.38383     -560.95653      8135.5368     -7193.278      -881.62872      124036.5       49.871202      49.871202      49.871202      1.1851656      328.33271      252.4957       588.69069    
     28000   28000          301.26232     -1091.7478      22179.709      24156.934      9715.5244      14441.41       4819.3654      5108.5634      3781.2631      383.08952     -587.45943      8131.0765     -7194.4884     -880.59722      124181.79      49.890667      49.890667      49.890667      1.1837789     -2605.5447      268.15307     -937.85164    
     29000   29000          300.93196     -402.86198      23503.966      24233.316      9704.8704      14528.445      4882.5766      5098.9352      3801.3338      382.81816     -580.04325      8139.0083     -7196.1834     -880.90969      124137.74      49.884767      49.884767      49.884767      1.184199      -596.11957     -422.32525     -190.14113    
     30000   30000          299.6896      -1126.1156      22178.862      24222.877      9664.805       14558.072      4859.9206      5084.2291      3841.6764      382.17547     -563.0833       8145.1381     -7191.9842     -878.63798      124458.7       49.927722      49.927722      49.927722      1.1811451     -1245.74       -935.95523     -1196.6516    
     31000   31000          303.43593     -769.43331      22922.78       24317.668      9785.6219      14532.046      4928.7988      5057.2837      3805.3515      379.93641     -584.90021      8139.177      -7193.6011     -879.71663      124306.1       49.907308      49.907308      49.907308      1.1825952     -51.084978     -1140.7618     -1116.4532    
     32000   32000          293.89005     -226.28528      23615.004      24025.612      9477.7732      14547.839      4893.2421      5136.5518      3760.193       403.00866     -587.36709      8138.3958     -7196.1854     -878.90054      124421.52      49.92275       49.92275       49.92275       1.1814981     -1012.5819      181.25324      152.47278    
     33000   33000          299.29014      59.188936      24309.667      24202.481      9651.9227      14550.559      5013.38        4978.0916      3729.6512      392.24822     -502.36672      8132.6298     -7193.0754     -880.67517      124170.8       49.889195      49.889195      49.889195      1.1838837      503.02358      81.558208     -407.01498    
     34000   34000          304.39746     -387.93572      23705.389      24404.807      9816.6305      14588.176      4887.6862      5123.5614      3755.8635      378.10823     -509.20759      8144.9422     -7192.7776     -884.57459      123623.42      49.815779      49.815779      49.815779      1.1891257      430.21188     -1284.8929     -309.12618    
     35000   35000          299.47422     -307.49559      23649.799      24207.48       9657.859       14549.621      4841.3836      5008.4859      3873.8255      393.00865     -499.49584      8129.6455     -7197.2325     -879.35532      124357.17      49.914142      49.914142      49.914142      1.1821094      490.31588     -414.587       -998.21566    
     36000   36000          299.15892     -120.58047      23922.17       24140.987      9647.6907      14493.297      4947.8838      4951.5537      3747.4995      385.47324     -469.18174      8124.3124     -7194.2442     -878.83233      124431.18      49.924041      49.924041      49.924041      1.1814064     -429.29893     -787.31557      854.8731     
     37000   37000          296.09243     -848.82806      22610.796      24156.743      9548.7985      14607.944      4952.0106      5171.5783      3758.5679      378.86611     -601.4585       8143.5014     -7195.1217     -875.66158      124881.74      49.984227      49.984227      49.984227      1.177144      -1131.8366     -1272.396      -142.25158    
     38000   38000          299.24944      1079.1233      26171.238      24220.213      9650.6101      14569.603      4983.8864      5087.6224      3726.146       381.62246     -546.92964      8134.0861     -7196.8304     -882.10313      123969.79      49.86226       49.86226       49.86226       1.1858033      1158.5704      255.4282       1823.3714    
     39000   39000          301.93405      4.1572011      24188.169      24180.652      9737.187       14443.465      4880.719       5015.586       3801.9716      393.1922      -602.04589      8150.4888     -7196.4471     -881.89459      123999.11      49.86619       49.86619       49.86619       1.185523       776.06025     -288.63472     -474.95393    
     40000   40000          299.48329     -838.19156      22741.5        24256.674      9658.1515      14598.523      4993.7343      5007.9757      3827.8504      377.0116      -551.18368      8139.3121     -7196.1779     -882.25013      123949.13      49.85949       49.85949       49.85949       1.1860009     -144.93475     -1541.0836     -828.55636    
     41000   41000          300.72173      104.19806      24423.938      24235.821      9698.0906      14537.73       4852.9942      5061.5177      3842.4998      387.4084      -570.64245      8155.2355     -7191.2829     -883.36937      123792.09      49.838424      49.838424      49.838424      1.1875055     -840.63611      1115.5854      37.644896    
     42000   42000          300.15652      183.95331      24453.077      24120.516      9679.8628      14440.653      4912.3244      4954.5899      3805.1638      386.43397     -546.54201      8127.1816     -7198.4988     -882.15917      123961.92      49.861204      49.861204      49.861204      1.1858786      372.52883      1387.4312     -1208.1001    
     43000   43000          297.65136     -233.22113      23545.831      23968.019      9599.0728      14368.946      4960.0851      5068.9588      3648.6563      375.76355     -615.70989      8128.428      -7197.2355     -880.9928       124126.03      49.883198      49.883198      49.883198      1.1843107      61.592779     -246.22404     -515.03213    
     44000   44000          301.76128      1626.0411      27125.292      24186.442      9731.6154      14454.826      4978.4385      5007.1811      3663.7377      370.28022     -516.29497      8146.0223     -7194.5385     -882.39936      123928.17      49.856679      49.856679      49.856679      1.1862015      2204.9837      1069.8941      1603.2455    
     45000   45000          301.93054      964.01513      26248.419      24496.483      9737.074       14759.409      4978.965       5132.6622      3781.0409      391.5639      -474.22014      8143.7891     -7194.3919     -877.56006      124611.57      49.948156      49.948156      49.948156      1.1796961      533.77649      1211.8743      1146.3946    
     46000   46000          299.13567     -212.50482      23885.015      24270.719      9646.9411      14623.778      4962.6679      5034.877       3816.6839      380.64014     -506.6243       8133.4029     -7197.8699     -878.6716       124453.94      49.927085      49.927085      49.927085      1.1811903      323.50878      234.90749     -1195.9307    
     47000   47000          301.23045      110.63519      24493.696      24294.318      9714.4965      14579.821      5019.1361      5043.6872      3739.0654      377.77976     -548.89686      8143.9298     -7194.8801     -884.96633      123568.7       49.808427      49.808427      49.808427      1.1896523      135.61307      137.51493      58.777581    
     48000   48000          299.24046      897.56487      25730.104      24111.015      9650.3206      14460.694      4948.9045      5005.3117      3720.0287      375.50264     -549.99638      8155.4848     -7194.5418     -884.10985      123688.41      49.824506      49.824506      49.824506      1.1885009      112.13182      1194.3233      1386.2394    
     49000   49000          301.51436      2128.7765      28050.225      24210.901      9723.6523      14487.249      4964.2608      5139.9357      3534.7163      374.25456     -476.09365      8139.7215     -7189.5461     -884.27329      123665.55      49.821436      49.821436      49.821436      1.1887206      2657.828       3150.3099      578.19176    
     50000   50000          302.43247     -627.61652      23078.881      24213.599      9753.2607      14460.339      4849.5542      5132.9272      3780.815       374.82099     -623.25762      8141.1915     -7195.7127     -882.09895      123970.38      49.862338      49.862338      49.862338      1.1857977     -482.88596      104.34882     -1504.3124    
     51000   51000          302.67074      1059.7545      26160.217      24245.452      9760.9447      14484.507      4973.2949      5014.6572      3676.2316      380.40564     -493.34976      8131.142      -7197.8741     -882.67552      123889.4       49.851479      49.851479      49.851479      1.1865728      405.44193      1735.1748      1038.6469    
     52000   52000          294.31061     -416.83263      23412.543      24167.413      9491.3359      14676.077      4984.9901      5103.2066      3776.213       386.41732     -524.79905      8141.6065     -7191.5571     -880.64444      124175.13      49.889775      49.889775      49.889775      1.1838424      301.8693      -297.42876     -1254.9384    
     53000   53000          299.61925     -33.935139      24228.535      24289.948      9662.5361      14627.412      5000.7222      5046.1143      3783.9498      383.45466     -525.64118      8133.1729     -7194.3609     -881.25869      124088.58      49.878181      49.878181      49.878181      1.1846681     -74.039936      303.18956     -330.95504    
     54000   54000          297.32519      611.49937      25325.965      24222.752      9588.5543      14634.198      4920.8371      5090.7304      3847.8111      390.9013      -554.31401      8134.5066     -7196.2749     -883.99105      123705.03      49.826738      49.826738      49.826738      1.1883412     -381.08819     -162.92789      2378.5142    
     55000   55000          299.66616     -1454.997       21607.584      24251.244      9664.049       14587.195      4817.5051      5083.7326      3878.1125      391.3324      -522.3137       8135.8264     -7197.0006     -877.74352      124585.53      49.944676      49.944676      49.944676      1.1799427     -908.89722     -1573.7067     -1882.3872    
     56000   56000          297.04299      660.78165      25385.496      24191.365      9579.4533      14611.912      4979.7293      5066.3272      3781.5465      394.95112     -552.06846      8136.9746     -7195.5486     -882.50521      123913.31      49.854686      49.854686      49.854686      1.1863438      1432.2648      225.27932      324.80079    
     57000   57000          303.3351       348.25221      24963.399      24331.955      9782.37        14549.585      4839.4829      5076.7446      3797.7849      393.26439     -498.89803      8137.4044     -7196.1984     -879.56853      124327.03      49.910109      49.910109      49.910109      1.1823961     -328.31373      957.27491      415.79544    
     58000   58000          299.39192     -1687.0801      21132.467      24175.502      9655.2049      14520.297      4863.2644      4970.7482      3990.8908      397.23108     -631.05569      8124.3563     -7195.1379     -884.1782       123678.85      49.823222      49.823222      49.823222      1.1885928     -957.09992     -1979.276      -2124.8643    
     59000   59000          303.78144      737.52008      25718.68       24386.19       9796.7644      14589.426      4800.7436      5180.5409      3800.0625      385.65407     -523.57272      8140.5824     -7194.5852     -882.71593      123883.73      49.850719      49.850719      49.850719      1.1866271      854.49882      339.83719      1018.2242    
     60000   60000          300.32661      1545.3213      27023.032      24225.708      9685.3483      14540.36       4875.6127      5150.8342      3717.011       370.76376     -514.1534       8136.0056     -7195.7139     -881.02279      124121.81      49.882632      49.882632      49.882632      1.184351       1764.472       1596.3896      1275.1023    
     61000   61000          301.93357      295.12189      24883.703      24350.639      9737.1717      14613.467      4878.3277      5107.7105      3777.1401      382.77216     -492.96541      8152.3265     -7191.8443     -882.94375      123851.76      49.846431      49.846431      49.846431      1.1869333      693.46257      17.269347      174.63376    
     62000   62000          300.85669     -56.928028      24102.685      24206.004      9702.4428      14503.562      4849.6885      5057.1219      3811.2614      388.37946     -543.39874      8135.672      -7195.1629     -878.72864      124445.86      49.926005      49.926005      49.926005      1.181267      -1332.3568      901.84695      259.72576    
     63000   63000          297.33858     -122.41756      23905.203      24128.351      9588.9859      14539.365      4927.9834      5108.4277      3742.1233      385.33602     -559.85855      8131.2024     -7195.8493     -874.90744      124989.38      49.998584      49.998584      49.998584      1.1761302      1161.5647     -628.3572      -900.46016    
     64000   64000          300.79652     -180.60449      23907.23       24234.291      9700.5023      14533.789      4887.5589      5110.7334      3775.5025      389.46591     -566.41703      8136.6108     -7199.6658     -880.66388      124172.39      49.889408      49.889408      49.889408      1.1838685     -297.92161      143.95482     -387.84669    
     65000   65000          299.5205      -34.658247      24276.69       24339.529      9659.3516      14680.178      4948.5334      5013.3901      3830.1251      405.06099     -464.6426       8142.6934     -7194.9828     -879.60731      124321.55      49.909375      49.909375      49.909375      1.1824482      720.26254      300.03365     -1124.2709    
     66000   66000          298.76465      2.7315714      23931.633      23926.677      9634.9758      14291.701      4835.749       4933.7095      3717.0867      375.77218     -503.61711      8132.4039     -7199.4034     -878.93298      124416.93      49.922136      49.922136      49.922136      1.1815417      122.75215      211.55167     -326.1091     
     67000   67000          302.4006       850.94341      25885.912      24341.46       9752.233       14589.227      4965.8028      5125.3751      3673.6057      397.70375     -525.88636      8147.7054     -7195.0794     -878.69318      124450.88      49.926677      49.926677      49.926677      1.1812193      1255.6517      362.65779      934.52078    
     68000   68000          297.55551     -540.47892      23193.936      24179.989      9595.9818      14584.007      4867.6386      5095.5001      3842.1252      386.91271     -552.00017      8135.7254     -7191.8945     -874.15733      125096.64      50.012881      50.012881      50.012881      1.1751218     -1780.2951      705.16897     -546.31063    
     69000   69000          305.68716     -354.75061      23877.205      24522.455      9858.2226      14664.232      4939.7611      5112.5265      3832.5749      393.79107     -565.64129      8144.8363     -7193.6166     -876.8123       124717.84      49.962351      49.962351      49.962351      1.1786909     -1750.1429      632.81543      53.075624    
     70000   70000          301.77498     -879.07717      22731.326      24329.2        9732.0571      14597.143      4875.7414      5076.8556      3847.805       383.29177     -520.07678      8133.182      -7199.6564     -877.39635      124634.83      49.951263      49.951263      49.951263      1.179476      -926.84006     -1272.3048     -438.08668    
     71000   71000          292.45856     -942.04703      22391.057      24102.73       9431.6083      14671.122      4963.2354      5028.1956      3904.3171      379.95317     -560.62069      8148.7517     -7192.7105     -877.73401      124586.88      49.944856      49.944856      49.944856      1.1799299     -702.85638     -1475.5531     -647.73165    
     72000   72000          304.84607      1343.5609      26781.864      24344.575      9831.0981      14513.476      4988.7406      5028.1146      3672.5035      374.68023     -506.40659      8148.1244     -7192.2804     -879.14667      124386.68      49.918091      49.918091      49.918091      1.181829       1514.2558      180.11149      2336.3155    
     73000   73000          297.88872     -354.26595      23471.596      24115.242      9606.7276      14508.515      4879.1897      5033.7502      3741.4552      384.91808     -470.08855      8134.969      -7195.6788     -877.79568      124578.12      49.943687      49.943687      49.943687      1.1800128     -805.68758     -105.62605     -151.48421    
     74000   74000          302.99295      682.32751      25630.229      24390.863      9771.3358      14619.527      4953.5246      5115.24        3734.0677      392.25691     -524.09285      8141.1997     -7192.6689     -878.02014      124546.28      49.93943       49.93943       49.93943       1.1803146      578.28042      105.68737      1363.0147    
     75000   75000          296.51418     -428.27945      23356.799      24131.91       9562.3996      14569.51       4991.9956      5050.3654      3748.2739      388.32174     -536.0499       8124.3199     -7197.7162     -881.19964      124096.9       49.879295      49.879295      49.879295      1.1845887     -870.25333     -863.1012       448.51618    
     76000   76000          301.49724     -334.82206      23661.848      24265.295      9723.1002      14542.195      4915.5028      5025.3408      3849.6818      381.30559     -568.05034      8135.0718     -7196.658      -884.88423      123580.17      49.809967      49.809967      49.809967      1.1895419     -541.6981      -1214.5763      751.80818    
     77000   77000          301.82316     -1272.6386      21885.149      24187.233      9733.6111      14453.622      4837.3243      5004.7396      3875.0054      387.32764     -595.84013      8141.2516     -7196.186      -881.64746      124033.86      49.870848      49.870848      49.870848      1.1851907     -977.88384     -945.21859     -1894.8134    
     78000   78000          302.96018      641.97499      25499.451      24335.992      9770.279       14565.713      4882.3263      5121.574       3776.1036      383.51464     -539.82011      8138.7058     -7196.6915     -879.99069      124267.38      49.902126      49.902126      49.902126      1.1829636      958.87095      804.41572      162.63829    
     79000   79000          297.44631     -111.55064      23885.097      24086.87       9592.4601      14494.41       4926.4099      5070.4479      3734.1811      376.50862     -556.07707      8139.8849     -7196.9452     -881.69865      124026.66      49.869883      49.869883      49.869883      1.1852596     -359.68411     -382.05131      407.0835     
     80000   80000          298.31814     -79.313178      23975.174      24118.883      9620.5761      14498.306      4926.6686      5067.4994      3739.4581      389.92361     -568.5906       8133.1394     -7189.7921     -880.18744      124239.6       49.898408      49.898408      49.898408      1.1832281      333.08221     -1343.1766      772.15484    
     81000   81000          303.62063      542.13956      25406.71       24424.392      9791.5781      14632.814      5035.8605      4975.617       3795.2269      397.52307     -496.34965      8121.5614     -7196.6251     -880.17778      124240.97      49.89859       49.89859       49.89859       1.1832151     -1846.7377      2361.95        1111.2064    
     82000   82000          296.86529     -339.7527       23574.115      24190.178      9573.7228      14616.455      5035.4521      4974.1093      3816.7091      394.90774     -542.25636      8134.3909     -7196.8576     -879.5268       124332.93      49.910898      49.910898      49.910898      1.18234        596.0196      -1373.6418     -241.63588    
     83000   83000          300.49969     -531.40047      23313.705      24279.263      9690.9299      14588.333      4886.4413      5148.9255      3791.2053      376.90511     -560.87709      8135.4804     -7189.7474     -877.71693      124589.3       49.94518       49.94518       49.94518       1.179907      -228.1265      -1796.3805      430.30559    
     84000   84000          303.03691      1081.2972      26273.181      24320.203      9772.7536      14547.45       4943.2122      5051.9645      3773.678       386.93958     -540.12813      8128.5761     -7196.7925     -882.99623      123844.4       49.845443      49.845443      49.845443      1.1870039      409.27172      1649.1301      1185.4898    
     85000   85000          298.91507      286.35115      24783.798      24265.07       9639.8268      14625.243      4970.7229      5113.1877      3729.0682      399.03476     -516.73684      8133.9449     -7203.9786     -880.3797       124212.47      49.894775      49.894775      49.894775      1.1834865      889.2304      -446.34048      416.16352    
     86000   86000          299.63125      165.18953      24440.801      24143.136      9662.9232      14480.212      4938.362       5088.3603      3744.5451      364.45886     -597.10288      8135.0035     -7193.4145     -885.04488      123557.74      49.806954      49.806954      49.806954      1.1897579     -498.47066     -45.634478      1039.6737    
     87000   87000          295.36272     -45.632328      23992.472      24075.045      9525.2659      14549.779      4906.2163      5176.907       3739.6168      382.79501     -599.46412      8142.1363     -7198.4287     -881.35184      124075.47      49.876424      49.876424      49.876424      1.1847933     -32.232761      29.237822     -133.90204    
     88000   88000          301.34608     -188.65143      23943.483      24283.8        9718.2254      14565.575      5036.8412      5048.9444      3720.4869      382.48607     -557.61109      8134.8825     -7200.4549     -884.0717       123693.75      49.825223      49.825223      49.825223      1.1884496     -983.54238      219.1567       198.4314     
     89000   89000          297.14015      777.58308      25548.704      24145.036      9582.5867      14562.449      5038.4505      5025.8916      3719.2276      394.89789     -529.95551      8114.9104     -7200.9731     -883.47358      123777.49      49.836464      49.836464      49.836464      1.1876456      1262.5763      663.27231      406.90061    
     90000   90000          300.208       -88.678363      24014.109      24175.284      9681.523       14493.761      4973.6394      5119.1589      3674.0174      367.44864     -578.61811      8137.7146     -7199.6001     -877.4682       124624.62      49.949899      49.949899      49.949899      1.1795726     -837.12547     -1046.5358      1617.6262    
     91000   91000          301.60831     -524.92024      23342.857      24296.933      9726.6821      14570.25       4935.9177      5041.0492      3809.2734      379.18355     -543.04577      8144.1185     -7196.2461     -877.44889      124627.36      49.950265      49.950265      49.950265      1.1795466     -1422.7347     -31.063321     -120.96269    
     92000   92000          298.4604       395.32467      24780.162      24064.38       9625.1641      14439.216      4821.9061      5040.6153      3780.9417      393.96073     -557.70159      8152.214      -7192.72       -880.8147       124151.13      49.88656       49.88656       49.88656       1.1840713     -516.76613      1080.0817      622.6585     
     93000   93000          301.5063      -1206.7148      22049.32       24241.09       9723.3923      14517.697      4892.0861      5071.8258      3824.294       386.74498     -586.59994      8130.4466     -7201.1001     -878.05337      124541.56      49.9388        49.9388        49.9388        1.1803592     -2558.4796     -408.07462     -653.59035    
     94000   94000          300.07852      391.96332      24868.796      24160.6        9677.3475      14483.252      4906.5484      4967.4662      3781.4194      384.78016     -506.04174      8147.5866     -7198.5068     -882.6787       123888.95      49.851419      49.851419      49.851419      1.186577      -17.201285      824.01973      369.0715     
     95000   95000          298.99322      936.31328      25865.035      24171.017      9642.3471      14528.67       4959.2698      5006.0626      3743.9597      381.79357     -512.68086      8147.0486     -7196.7831     -881.48413      124056.84      49.873928      49.873928      49.873928      1.1849712      1195.4349      677.73618      935.76877    
     96000   96000          299.6945      -378.19916      23538.79       24223.942      9664.9629      14558.98       4997.1807      5045.9304      3753.1847      383.73037     -574.43811      8149.7506     -7196.359      -880.32841      124219.71      49.895744      49.895744      49.895744      1.1834176     -260.66472     -516.85403     -357.07873    
     97000   97000          299.18388      1073.1525      26039.456      24091.799      9648.4957      14443.304      4980.0298      5071.1413      3567.6241      375.80909     -497.50044      8138.8671     -7192.6672     -878.73956      124444.31      49.925798      49.925798      49.925798      1.1812817      789.0404       1354.0078      1076.4093    
     98000   98000          301.1236       710.39957      25460.559      24176.262      9711.0505      14465.211      4955.0447      5013.297       3767.9915      382.1679      -593.01763      8136.9229     -7197.1952     -882.16151      123961.59      49.86116       49.86116       49.86116       1.1858818      1896.8874     -473.64353      707.95482    
     99000   99000          301.20184     -221.18789      23782.196      24182.854      9713.5739      14469.28       4934.8204      5055.7608      3707.8         376.59091     -545.3604       8131.3961     -7191.7278     -880.43724      124204.36      49.893688      49.893688      49.893688      1.1835639     -507.84712      386.58817     -542.30471    
    100000   100000         301.89117     -289.48377      23876.004      24402.677      9735.8043      14666.872      5017.995       5087.5185      3801.3756      369.94707     -550.80708      8135.178      -7194.3346     -876.58663      124749.95      49.966638      49.966638      49.966638      1.1783875     -1323.7065     -386.68457      841.93974    
    101000   101000         296.17676     -787.35493      22627.882      24049.154      9551.5179      14497.636      4946.5786      5101.7111      3740.007       362.87956     -598.89505      8141.8033     -7196.449      -883.49577      123774.38      49.836047      49.836047      49.836047      1.1876754     -635.6712      -966.38311     -760.01048    
    102000   102000         301.59666      53.101101      24457.876      24361.833      9726.3066      14635.527      4966.999       5077.5286      3793.0503      382.88003     -532.99469      8141.8734     -7193.8098     -881.76052      124017.96      49.868717      49.868717      49.868717      1.1853427      506.48454     -255.95844     -91.222794    
    103000   103000         297.93187      253.80606      24650.838      24191.406      9608.1193      14583.287      5063.1779      5071.4168      3678.7813      368.33924     -546.46747      8143.0571     -7195.0177     -881.03347      124120.3       49.882431      49.882431      49.882431      1.1843654      991.06403     -557.28624      327.6404     
    104000   104000         300.42413      243.26581      24748.932      24307.453      9688.4932      14618.96       4973.3384      5111.7469      3721.1583      382.07649     -523.59354      8149.0326     -7194.799      -878.78487      124437.9       49.92494       49.92494       49.92494       1.1813426     -118.21121      536.50877      311.49988    
    105000   105000         301.28932      64.708889      24284.616      24167.372      9716.3949      14450.977      4891.0349      5000.351       3779.9555      372.01059     -543.32181      8144.5741     -7193.6276     -880.20704      124236.84      49.898037      49.898037      49.898037      1.1832544      57.067117      861.7058      -724.64625    
    106000   106000         296.09185     -171.12957      23873.272      24183.539      9548.7798      14634.759      4953.1523      4987.1721      3889.111       383.24902     -527.16735      8147.4569     -7198.2148     -879.63031      124318.29      49.90894       49.90894       49.90894       1.1824791     -751.51428     -209.13615      447.26171    
    107000   107000         300.20368     -559.08023      23198.589      24208.6        9681.3838      14527.216      4944.6225      5067.8226      3739.1402      386.41667     -566.81361      8152.1047     -7196.077      -882.79356      123872.83      49.849257      49.849257      49.849257      1.1867314     -196.63678     -539.43752     -941.16638    
    108000   108000         296.36021     -22.822886      23980.987      24022.302      9557.4341      14464.868      4968.6765      5024.1776      3682.4186      376.30268     -533.43593      8144.1137     -7197.3856     -880.99266      124126.05      49.883201      49.883201      49.883201      1.1843105      126.20348     -970.14586      775.47373    
    109000   109000         301.4482       908.18878      25993.006      24351.646      9721.5189      14630.127      4973.492       5120.7512      3749.0225      390.53708     -549.73837      8141.7569     -7195.6945     -882.43595      123923.03      49.85599       49.85599       49.85599       1.1862507     -129.06961      1276.8372      1576.7988    
    110000   110000         298.94778     -1277.9411      21844.649      24158.512      9640.8818      14517.63       4943.2536      5032.0112      3835.2987      375.85649     -613.76773      8139.3002     -7194.3223     -880.8142       124151.2       49.886569      49.886569      49.886569      1.1840706     -1565.9275     -1108.7374     -1159.1583    
    111000   111000         301.65438     -744.47033      22968.927      24323.62       9728.1679      14595.452      4997.2793      5090.7316      3755.0917      385.83354     -572.19541      8133.8357     -7195.1243     -876.43113      124772.09      49.969593      49.969593      49.969593      1.1781785     -159.58271     -823.27364     -1250.5546    
    112000   112000         301.2889       190.76167      24637.086      24291.508      9716.3814      14575.126      4949.3744      5007.155       3778.5457      389.28006     -504.84871      8149.1257     -7193.5057     -880.35049      124216.59      49.895327      49.895327      49.895327      1.1834472      484.03155      605.1959      -516.94245    
    113000   113000         300.76475      16.538557      24215.889      24185.953      9699.4778      14486.475      4980.5147      4985.4762      3722.8258      388.2689      -539.25313      8143.2534     -7194.6107     -881.06577      124115.75      49.881821      49.881821      49.881821      1.1844088     -206.13301     -461.27943      717.0281     
    114000   114000         301.17527      332.44896      24924.488      24321.592      9712.7168      14608.875      5008.1596      5062.4677      3710.1503      371.69565     -486.98485      8137.4054     -7194.0184     -879.41466      124348.78      49.913019      49.913019      49.913019      1.1821892      1268.1546     -819.5804       548.77269    
    115000   115000         302.92851      9.7656694      24251.012      24233.325      9769.2578      14464.068      4925.7667      5011.1979      3776.6442      387.06598     -586.41164      8144.5002     -7194.6959     -880.59386      124182.26      49.89073       49.89073       49.89073       1.1837744     -1019.3527     -78.352785      1127.0025    
    116000   116000         304.17806     -1902.2612      20903.537      24346.306      9809.555       14536.751      4765.2237      5108.3915      3913.9761      399.99131     -611.30034      8153.4157     -7192.947      -881.19773      124097.17      49.879331      49.879331      49.879331      1.1845862     -1553.4702     -1541.0671     -2612.2464    
    117000   117000         298.29809     -986.45633      22394.857      24182.919      9619.9295      14562.989      4863.7328      5083.6976      3812.5978      382.27729     -520.71773      8136.5945     -7195.1932     -879.84575      124287.85      49.904866      49.904866      49.904866      1.1827687     -862.837       -1298.1122     -798.41975    
    118000   118000         300.50694      209.70089      24487.548      24107.315      9691.1636      14416.151      4772.8917      5041.2259      3825.6378      394.39385     -559.05923      8141.0798     -7200.019      -879.55031      124329.6       49.910453      49.910453      49.910453      1.1823716      815.76558     -609.81202      423.14911    
    119000   119000         301.9074      -948.99274      22633.405      24356.724      9736.3275      14620.396      4919.0062      5105.2332      3784.6403      392.59552     -515.36936      8135.4793     -7201.1887     -878.23005      124516.51      49.935451      49.935451      49.935451      1.1805968     -1009.1117     -1695.9794     -141.88709    
    120000   120000         302.88181     -153.98961      23990.041      24270.841      9767.7519      14503.089      4836.5902      5025.0097      3786.9125      388.99395     -469.5986       8129.3379     -7194.1563     -874.59051      125034.68      50.004623      50.004623      50.004623      1.1757041      434.99974     -916.63015      19.661568    
    121000   121000         301.13249     -1797.4556      21039.182      24291.875      9711.3372      14580.538      4945.1635      5047.9911      3847.4546      383.08922     -574.29351      8129.0315     -7197.8989     -881.3051       124082.05      49.877305      49.877305      49.877305      1.1847305     -2377.8559     -1368.0282     -1646.4827    
    122000   122000         295.08758     -1012.9609      22272.138      24099.448      9516.3927      14583.055      4897.7753      5140.9046      3822.6542      389.29133     -610.08591      8139.0406     -7196.5248     -884.08019      123692.56      49.825063      49.825063      49.825063      1.188461       402.28465     -2595.4724     -845.69505    
    123000   123000         300.83967     -716.57863      22919.222      24215.671      9701.8939      14513.777      4832.6216      5043.253       3903.8376      382.982       -595.11327      8140.6551     -7194.4591     -881.4942       124055.43      49.873739      49.873739      49.873739      1.1849847     -568.9869      -1461.9294     -118.81959    
    124000   124000         299.84016      1143.6126      26362.761      24280.461      9669.6605      14610.8        4962.4592      5105.1882      3678.7019      381.78728     -461.97265      8135.8761     -7191.2399     -875.88402      124850.02      49.979995      49.979995      49.979995      1.177443       1728.1502      1144.9677      557.7198     
    125000   125000         297.88522     -48.341776      23971.732      24059.238      9606.6149      14452.623      4955.0897      4955.9705      3745.2057      375.02327     -518.37914      8132.7061     -7192.9935     -881.04585      124118.56      49.882197      49.882197      49.882197      1.184382       1049.1459     -364.53942     -829.63182    
    126000   126000         300.34889     -359.36574      23600.856      24251.875      9686.0666      14565.809      4933.3558      5066.9321      3798.072       380.12463     -567.30388      8148.0822     -7193.4542     -880.34774      124216.98      49.895379      49.895379      49.895379      1.1834435     -365.52619      465.12473     -1177.6958    
    127000   127000         298.11752     -17.879271      24055.987      24088.349      9614.1063      14474.242      4887.9672      5135.6219      3655.9981      377.95801     -523.67491      8135.4129     -7195.0407     -881.10107      124110.78      49.881155      49.881155      49.881155      1.1844562      357.06168     -582.89563      172.19614    
    128000   128000         300.68427      200.13474      24769.408      24407.153      9696.8825      14710.271      5010.988       5098.8996      3803.9868      382.60764     -523.70627      8131.1904     -7193.6955     -881.08919      124112.45      49.881379      49.881379      49.881379      1.1844403     -374.0099       157.00432      817.4098     
    129000   129000         298.61889      588.85793      25201.243      24139.983      9630.2754      14509.708      4899.4921      5041.1379      3826.5894      393.20248     -591.79921      8136.7305     -7195.6453     -884.91166      123576.34      49.809453      49.809453      49.809453      1.1895788      831.80228      539.30732      395.46417    
    130000   130000         299.33462     -178.19689      23913.697      24235.035      9653.3572      14581.677      4976.5477      5084.9911      3748.1221      385.05241     -553.48241      8135.6678     -7195.2213     -884.40317      123647.39      49.818997      49.818997      49.818997      1.1888952      749.94821     -1526.6827      242.14381    
    131000   131000         299.82794     -423.95839      23323.751      24091.651      9669.2663      14422.384      4898.4069      5006.4812      3811.7348      386.16473     -628.23949      8144.398      -7196.5619     -880.50171      124195.26      49.892471      49.892471      49.892471      1.1836505     -378.78844     -137.82336     -755.26336    
    132000   132000         299.34482     -638.9263       23323.86       24478.621      9653.686       14824.935      5001.2245      5123.2812      3887.3572      400.30484     -532.46813      8138.5757     -7193.3404     -882.4089       123926.83      49.8565        49.8565        49.8565        1.1862143     -1199.5355      338.72067     -1055.9641    
    133000   133000         303.65834     -496.73415      23446.514      24346.4        9792.7942      14553.606      4938.3228      5076.079       3768.6001      390.74551     -554.01298      8132.4271     -7198.5553     -880.33379      124218.95      49.895642      49.895642      49.895642      1.1834248     -458.47162      266.04135     -1297.7722    
    134000   134000         302.78931     -924.14204      22677.472      24355.728      9764.7686      14590.96       4871.6997      5088.8111      3891.2978      371.80514     -564.98313      8129.1477     -7196.8185     -878.19605      124521.33      49.936096      49.936096      49.936096      1.180551      -1134.6823     -2029.779       392.03517    
    135000   135000         301.32855     -107.02661      24040.825      24234.296      9717.66        14516.636      4918.329       5033.4656      3822.0659      384.96689     -591.44735      8142.0692     -7192.8129     -882.23903      123950.69      49.859699      49.859699      49.859699      1.185986      -1386.4356      12.695348      1052.6604    
    136000   136000         297.83304      777.79449      25476.519      24071.416      9604.9322      14466.484      4907.4769      5100.2941      3634.3956      383.50834     -501.01635      8137.5452     -7195.7195     -882.81151      123870.32      49.848919      49.848919      49.848919      1.1867556      1195.3847     -332.07839      1470.0772    
    137000   137000         298.35993     -1507.4589      21519.833      24255.098      9621.9238      14633.174      4847.6943      5069.3578      3958.2862      389.93971     -580.40346      8141.5356     -7193.2363     -878.93585      124416.52      49.922081      49.922081      49.922081      1.1815456     -1042.8621     -759.4396      -2720.0749    
    138000   138000         298.51535     -251.98193      23726.203      24182.387      9626.9362      14555.451      4839.9789      5013.0641      3884.6155      379.80626     -510.79435      8143.7816     -7195.0011     -880.92779      124135.19      49.884425      49.884425      49.884425      1.1842233      64.602837      236.15282     -1056.7014    
    139000   139000         302.83164     -101.15915      24171.218      24355.426      9766.1339      14589.292      4967.949       5110.7744      3708.3748      371.00147     -512.98725      8137.7326     -7193.5527     -875.80482      124861.31      49.981502      49.981502      49.981502      1.1773365     -1331.3141      730.95741      296.87925    
    140000   140000         299.93991     -220.0694       23702.482      24102.021      9672.8772      14429.144      4832.2958      5030.8248      3792.9463      373.03781     -540.15833      8133.4288     -7193.2311     -878.43889      124486.91      49.931494      49.931494      49.931494      1.1808775     -1048.4246     -231.32804      619.54449    
    141000   141000         300.14786     -915.82362      22536.125      24203.694      9679.5837      14524.11       4845.8992      4973.1245      3914.6876      392.30568     -544.13849      8135.1914     -7192.9597     -875.8688       124852.19      49.980285      49.980285      49.980285      1.1774225     -939.58167     -1650.2275     -157.66167    
    142000   142000         301.37723      92.673127      24510.909      24342.283      9719.2299      14623.053      4860.4367      5170.5342      3756.3785      392.30053     -506.0911       8142.4735     -7192.9792     -876.47864      124765.32      49.96869       49.96869       49.96869       1.1782424      286.04315      263.44765     -271.47142    
    143000   143000         298.2052       745.10256      25529.276      24179.906      9616.9341      14562.972      4858.0642      5096.9898      3798.6568      396.96871     -541.95472      8148.8121     -7194.565      -880.63505      124176.46      49.889952      49.889952      49.889952      1.1838298      1767.7817      1542.1014     -1074.5754    
    144000   144000         296.55506      274.53858      24505.83       24007.868      9563.718       14444.15       4800.1279      4993.545       3838.7152      380.05792     -514.51433      8143.1537     -7196.9354     -879.26273      124370.27      49.915894      49.915894      49.915894      1.181985       945.95831      111.5295      -233.87207    
    145000   145000         301.64695     -12.00066       24207.705      24229.572      9727.9284      14501.643      4892.3241      5118.1133      3712.328       376.94547     -537.91753      8135.2443     -7195.3943     -875.2534       124939.98      49.991996      49.991996      49.991996      1.1765953      442.58339      345.79627     -824.38165    
    146000   146000         300.77504      618.71514      25252.708      24133.601      9699.8097      14433.791      4922.1835      5000.7198      3746.7577      395.50588     -590.39878      8150.7551     -7191.7318     -881.71911      124023.78      49.869498      49.869498      49.869498      1.1852871     -12.85129       2409.1422     -540.14555    
    147000   147000         298.28768     -6.5263342      24096.01       24107.892      9619.5939      14488.298      4945.944       5046.2866      3745.9167      361.52413     -551.47381      8137.6416     -7197.5414     -876.00801      124832.35      49.977637      49.977637      49.977637      1.1776097      286.73158      163.62242     -469.933      
    148000   148000         300.85681      94.41597       24270.276      24098.541      9702.4467      14396.094      4836.4172      5011.576       3732.2692      367.89054     -482.51308      8129.2817     -7198.8272     -876.7957       124720.21      49.962666      49.962666      49.962666      1.1786686     -452.02194      1054.7885     -319.51868    
    149000   149000         302.07177     -739.84807      22930.137      24269.224      9741.6284      14527.595      4907.2603      5029.6945      3823.3169      388.37683     -567.35656      8140.2772     -7193.974      -881.14001      124105.29      49.88042       49.88042       49.88042       1.1845086     -288.91415     -1370.4726     -560.1575     
    150000   150000         294.75315     -1293.4218      21757.405      24114.705      9505.6075      14609.097      4932.4442      5041.4192      3808.1723      393.23373     -509.83759      8136.2839     -7192.6185     -875.05716      124968         49.995732      49.995732      49.995732      1.1763315     -2033.4678     -572.84168     -1273.9561    
    151000   151000         299.21515     -158.42327      23944.384      24232.172      9649.5043      14582.668      4883.4194      5145.7759      3760.9473      371.59289     -525.9038       8141.6902     -7194.8542     -877.92525      124559.74      49.94123       49.94123       49.94123       1.180187      -67.543702     -400.82856     -6.8975374    
    152000   152000         299.48923     -928.08839      22484.179      24171.583      9658.3432      14513.24       4903.2058      5089.7062      3762.9078      379.65819     -572.20527      8143.1324     -7193.165      -877.16524      124667.66      49.955649      49.955649      49.955649      1.1791653     -270.05556     -1156.2599     -1357.9497    
    153000   153000         302.69318     -396.31423      23664.73       24386.758      9761.6685      14625.09       4951.401       5031.8856      3853.6866      374.63725     -525.12563      8134.4835     -7195.8785     -875.37998      124921.91      49.989586      49.989586      49.989586      1.1767654     -627.20559     -510.43302     -51.304079    
    154000   154000         304.72078      679.41757      25475.758      24239.202      9827.0575      14412.145      4937.1696      4975.9457      3708.2537      364.67639     -516.07253      8142.789      -7200.6172     -876.26212      124796.15      49.972805      49.972805      49.972805      1.1779513      454.27765      1730.4298     -146.45477    
    155000   155000         303.93268     -346.56178      23664.578      24293.052      9801.6417      14491.41       4840.8677      5126.1082      3741.4907      384.18277     -553.25655      8144.3806     -7192.3633     -879.43708      124345.61      49.912595      49.912595      49.912595      1.1822194      486.8395      -1436.2221     -90.302749    
    156000   156000         298.58388     -1030.6405      22282.497      24150.072      9629.1462      14520.925      4874.8058      5016.5779      3866.2163      384.45548     -574.26976      8145.1271     -7191.9874     -880.11702      124249.55      49.899739      49.899739      49.899739      1.1831334     -2191.608      -266.35439     -633.959      
[...]
   1952000   1952000        296.42477     -158.981        23872.351      24161.846      9559.5161      14602.33       4964.4756      5063.5271      3777.0381      375.28908     -520.06047      8136.7852     -7194.7246     -875.82168      124858.91      49.981181      49.981181      49.981181      1.1773592     -661.18019      127.2108       57.026386    
   1953000   1953000        301.79754      1251.2394      26636.577      24380.064      9732.7846      14647.28       4985.6484      5075.7289      3816.0891      394.25676     -564.34912      8136.1478     -7196.2421     -884.32869      123657.8       49.820396      49.820396      49.820396      1.1887951      1099.1278      1637.3975      1017.1929    
   1954000   1954000        299.53818      162.19385      24402.771      24109.968      9659.9219      14450.046      4849.0205      5058.3527      3788.5135      387.71823     -590.31085      8151.3693     -7194.6174     -883.42462      123784.35      49.837385      49.837385      49.837385      1.1875798      194.70114     -763.57823      1055.4586    
   1955000   1955000        300.72773      625.456        25455.9        24324.257      9698.284       14625.973      5045.5661      5060.6497      3757.8842      391.36253     -574.33634      8140.1897     -7195.3427     -881.45166      124061.42      49.874541      49.874541      49.874541      1.1849275      630.82619      136.05528      1109.4865    
   1956000   1956000        301.45783     -220.02547      23863.962      24261.55       9721.8293      14539.721      4855.656       5065.864       3860.3772      390.11057     -566.43023      8133.8717     -7199.7282     -882.57203      123903.93      49.853428      49.853428      49.853428      1.1864336      414.77035     -1185.5828      110.73605    
   1957000   1957000        301.93322      1645.9149      27113.85       24150.166      9737.1603      14413.005      4950.4045      5056.6129      3671.645       371.52541     -580.90662      8142.9086     -7199.1844     -885.69983      123466.37      49.794674      49.794674      49.794674      1.1906383      1305.0751      1404.7664      2227.903     
   1958000   1958000        301.48383      377.6117       24930.006      24246.834      9722.6679      14524.167      4932.1576      5073.4225      3735.2981      394.92937     -557.3115       8138.6382     -7192.9677     -881.50891      124053.36      49.873461      49.873461      49.873461      1.1850045      188.27921      578.58808      365.96781    
   1959000   1959000        301.95968      511.28262      25311.455      24389.205      9738.0137      14651.191      4988.9995      5181.2554      3740.7933      383.18671     -594.34448      8143.2947     -7191.9939     -884.14448      123683.56      49.823855      49.823855      49.823855      1.1885475     -841.11292      1903.5938      471.36697    
   1960000   1960000        298.95542      1026.129       26025.667      24169.584      9641.128       14528.456      5004.9616      5069.2635      3655.8282      390.79416     -545.43034      8146.3818     -7193.3425     -881.68956      124027.94      49.870055      49.870055      49.870055      1.1852473      1227.4521      805.95225      1044.9826    
   1961000   1961000        299.21665     -284.11976      23650.508      24167.791      9649.5525      14518.238      5029.8597      5065.5806      3696.3561      360.49998     -595.72882      8151.5885     -7189.9179     -875.96027      124839.16      49.978545      49.978545      49.978545      1.1775455     -239.98415     -584.67416     -27.700977    
   1962000   1962000        299.21423     -199.58421      23856.903      24218.587      9649.4747      14569.112      4931.2509      5100.8977      3782.3331      378.68477     -575.62554      8143.8714     -7192.3        -880.05173      124258.76      49.900973      49.900973      49.900973      1.1830456      204.96444     -345.07877     -458.63831    
   1963000   1963000        299.65942     -921.73716      22646.739      24308.796      9663.8316      14644.964      4902.2763      5169.6269      3840.8096      393.34875     -604.80789      8138.5012     -7194.7908     -884.44847      123641.05      49.818146      49.818146      49.818146      1.1889561     -1356.9628     -1048.477      -359.7717     
   1964000   1964000        298.32591      229.1743       24541.477      24127.874      9620.8268      14507.048      4977.5407      5078.8031      3676.8289      385.59477     -559.12987      8145.1908     -7197.7808     -883.67651      123749.06      49.832649      49.832649      49.832649      1.1879184     -250.98318      467.78528      470.7208     
   1965000   1965000        293.36324      125.05636      24296.836      24069.893      9460.7838      14609.109      4969.0844      5091.9085      3767.6984      392.85        -564.73269      8142.37       -7190.0692     -878.82173      124432.68      49.924242      49.924242      49.924242      1.1813921     -990.38806      202.16646      1163.3907    
   1966000   1966000        300.28873      316.62602      24841.044      24267.985      9684.1266      14583.859      4991.126       5086.8436      3712.7315      394.55952     -550.21711      8140.3763     -7191.5609     -881.16728      124101.45      49.879906      49.879906      49.879906      1.1845453     -485.71513      1666.1004     -230.50724    
   1967000   1967000        300.8736       986.52293      25992.482      24210.978      9702.9881      14507.99       4928.4816      5082.0544      3703.1827      380.82144     -529.13534      8137.3799     -7194.7946     -883.14408      123823.67      49.842661      49.842661      49.842661      1.1872026      663.7361       1254.0844      1041.7483    
   1968000   1968000        304.23717     -886.65831      22868.601      24478.896      9811.4612      14667.435      4914.6451      5039.2443      3946.4737      385.7105      -567.08687      8142.2856     -7193.8374     -878.13644      124529.78      49.937226      49.937226      49.937226      1.1804709     -626.69944     -272.52353     -1760.752     
   1969000   1969000        303.52242      374.53808      24865.169      24185.224      9788.4111      14396.813      4942.4482      5040.3989      3623.8111      390.32335     -552.03943      8145.0796     -7193.2089     -878.48308      124480.65      49.930657      49.930657      49.930657      1.1809369     -392.88975      301.16367      1215.3403    
   1970000   1970000        298.63241      416.46065      25011.549      24255.369      9630.7111      14624.658      4925.6675      5064.5736      3799.5533      400.31993     -512.92072      8140.8278     -7193.3631     -878.33528      124501.59      49.933457      49.933457      49.933457      1.1807382      110.85552      772.48435      366.04209    
   1971000   1971000        301.12407     -977.28089      22347.756      24121.961      9711.0657      14410.895      4920.5482      5049.5996      3771.1553      383.16736     -672.67276      8150.9227     -7191.8254     -878.46986      124482.52      49.930907      49.930907      49.930907      1.1809191     -1560.3844     -920.55942     -450.89889    
   1972000   1972000        296.47074     -170.60812      23693.146      24002.479      9560.9987      14441.481      4869.3096      5049.5487      3757.1964      369.78382     -550.81669      8138.2962     -7191.8372     -879.59776      124322.9       49.909556      49.909556      49.909556      1.1824354     -1526.796       421.83305      593.13862    
   1973000   1973000        300.47159     -490.60937      23376.725      24264.042      9690.0236      14574.019      4886.2949      5111.017       3855.8116      388.66742     -623.82957      8149.1175     -7193.0604     -881.79605      124012.96      49.868047      49.868047      49.868047      1.1853905     -683.17623     -357.28497     -431.3669     
   1974000   1974000        297.85389     -900.96516      22408.603      24041.205      9605.6045      14435.601      4816.9864      5114.4763      3756.1041      385.8884      -583.95147      8138.2187     -7192.1216     -880.11342      124250.05      49.899807      49.899807      49.899807      1.1831285     -1956.7973     -23.848641     -722.24954    
   1975000   1975000        297.99826     -320.10055      23607.886      24187.653      9610.2604      14577.393      4918.8199      5047.3103      3834.6443      384.92631     -552.93793      8138.7311     -7194.1012     -880.52866      124191.46      49.891962      49.891962      49.891962      1.1836867      259.16302     -668.29737     -551.16729    
   1976000   1976000        299.90411     -410.94855      23470.817      24212.452      9671.7229      14540.729      4899.5281      5102.5068      3794.8318      389.87662     -608.78152      8155.1179     -7192.351      -883.70698      123744.8       49.832076      49.832076      49.832076      1.1879593     -1065.0674      294.38703     -462.16527    
   1977000   1977000        300.05242      135.30317      24507.438      24263.11       9676.5058      14586.604      4872.8029      5122.3214      3857.8316      394.27697     -602.8763       8136.8785     -7194.6307     -883.17506      123819.33      49.842078      49.842078      49.842078      1.1872443     -101.49072      1208.7679     -701.36766    
   1978000   1978000        295.17757     -78.362102      23836.024      23977.963      9519.2947      14458.668      4902.092       4996.3684      3762.9183      387.69601     -539.68646      8144.8921     -7195.612      -880.47192      124199.46      49.893033      49.893033      49.893033      1.1836105     -774.20486      1383.8192     -844.70063    
   1979000   1979000        298.38139     -488.4702       23223.837      24108.389      9622.6159      14485.774      4877.8002      4993.972       3863.1267      385.50092     -576.28955      8134.367      -7192.7038     -880.69462      124168.06      49.888827      49.888827      49.888827      1.1839099     -289.44299     -964.60444     -211.36318    
   1980000   1980000        298.47875     -710.94505      22965.808      24254.202      9625.756       14628.446      4992.5397      5056.6776      3810.316       394.45665     -580.8355       8148.3147     -7193.023      -880.03183      124261.57      49.901349      49.901349      49.901349      1.1830189     -2256.0575      656.72607     -533.50371    
   1981000   1981000        299.35479     -545.95462      23218.908      24205.371      9654.0076      14551.363      4918.0608      5061.0275      3806.0617      382.98426     -557.1395       8137.7971     -7197.4285     -882.64633      123893.5       49.852029      49.852029      49.852029      1.1865335     -904.6359       183.12708     -916.35503    
   1982000   1982000        299.21009      223.92939      24478.762      24073.01       9649.3411      14423.669      4825.7839      5102.8998      3745.2604      388.68627     -593.72901      8151.6283     -7196.8611     -880.15927      124243.58      49.89894       49.89894       49.89894       1.1831902     -135.98771      899.0722      -91.296334    
   1983000   1983000        294.725       -477.10291      23175.49       24037.212      9504.6998      14532.513      4903.5962      5067.6388      3793.4309      376.82417     -539.73851      8126.3594     -7195.5983     -882.99033      123845.23      49.845554      49.845554      49.845554      1.186996      -1314.0489     -912.20516      794.9453     
   1984000   1984000        302.62646     -74.561998      24185.873      24320.928      9759.5168      14561.411      4978.6024      5112.3091      3761.5144      391.13826     -620.42691      8134.9714     -7196.6972     -880.47595      124198.9       49.892957      49.892957      49.892957      1.1836159     -49.721228      140.62631     -314.59107    
   1985000   1985000        295.178       -226.29845      23724.49       24135.049      9519.3087      14615.74       4928.171       5079.4586      3795.4543      379.32187     -506.93962      8131.6962     -7191.4223     -879.05692      124399.38      49.919789      49.919789      49.919789      1.1817083     -1019.7321     -724.22311      1065.0599    
   1986000   1986000        300.77782      463.14878      25112.389      24272.672      9699.8992      14572.772      4950.6111      5071.949       3716.0686      382.53372     -509.15763      8151.5075     -7190.7398     -879.62702      124318.76      49.909003      49.909003      49.909003      1.1824747     -187.06362      858.51424      717.99572    
   1987000   1987000        300.95044     -450.08623      23389.347      24204.635      9705.4663      14499.169      4889.0322      5037.4236      3809.4793      375.17569     -565.77949      8148.4095     -7194.5717     -880.4313       124205.19      49.8938        49.8938        49.8938        1.1835559     -675.18332      880.25981     -1555.3352    
   1988000   1988000        296.40139      893.52053      25569.714      23954.745      9558.7621      14395.983      4869.7522      5038.1584      3698.9967      368.80473     -526.51094      8141.5946     -7194.8127     -882.37147      123932.09      49.857205      49.857205      49.857205      1.186164       1139.7129      336.94839      1203.9003    
   1989000   1989000        301.26804      867.53194      25792.918      24229.442      9715.7086      14513.733      4973.6249      5090.8593      3694.4844      367.24409     -549.35469      8135.0111     -7198.1357     -884.92261      123574.81      49.809247      49.809247      49.809247      1.1895935      1063.8558      1309.6345      229.10548    
   1990000   1990000        301.31086     -719.59517      23053.558      24357.035      9717.0895      14639.946      5006.409       5070.9344      3756.6389      382.91027     -518.97407      8137.4595     -7195.4321     -880.43236      124205.04      49.89378       49.89378       49.89378       1.1835573     -345.51582     -1360.8081     -452.46157    
   1991000   1991000        299.35091      12.35735       24181.617      24159.167      9653.8824      14505.285      4893.1017      5016.204       3803.4697      382.27265     -537.72207      8139.6342     -7191.6752     -877.88196      124565.88      49.94205       49.94205       49.94205       1.1801288     -389.63353      384.3708       42.334779    
   1992000   1992000        301.04722     -373.3445       23655.003      24331.926      9708.5874      14623.339      4962.9873      5160.4264      3707.0047      375.59825     -534.28577      8145.4025     -7193.7944     -879.59163      124323.76      49.909672      49.909672      49.909672      1.1824271      184.24727      50.153943     -1354.4347    
   1993000   1993000        300.06133     -54.111004      24083.269      24181.226      9676.7929      14504.433      4896.0135      5080.2819      3735.8528      363.13038     -516.09598      8143.506      -7198.2552     -880.96411      124130.07      49.88374       49.88374       49.88374       1.1842721     -791.96605      311.50197      318.13107    
   1994000   1994000        301.81252     -584.91558      23270.895      24333.326      9733.2678      14600.058      5019.4131      5052.6561      3775.8577      383.20178     -578.59832      8146.416      -7198.8883     -878.01804      124546.58      49.93947       49.93947       49.93947       1.1803117      39.080266     -583.03613     -1210.7909    
   1995000   1995000        299.26629     -1130.0563      22268.75       24324.037      9651.1536      14672.883      4944.3968      5014.6057      3872.7595      380.52287     -489.73692      8142.5365     -7192.201      -876.87704      124708.64      49.961121      49.961121      49.961121      1.1787779     -625.87479     -1584.3463     -1179.9479    
   1996000   1996000        296.20971      298.20747      24653.83       24113.543      9552.5805      14560.962      4908.2307      5105.1634      3749.1146      370.99501     -512.94273      8138.5747     -7198.1735     -880.24801      124231.06      49.897263      49.897263      49.897263      1.1833095      337.04703      124.55313      433.02224    
   1997000   1997000        298.75167     -728.82471      22768.583      24093.064      9634.5572      14458.507      4818.948       5107.4001      3790.0808      378.8635      -586.98024      8141.3603     -7191.1656     -877.58382      124608.2       49.947705      49.947705      49.947705      1.179728       27.176813     -1435.865      -777.78599    
   1998000   1998000        301.39866     -284.7465       23703.878      24220.149      9719.9209      14500.228      4881.8007      5062.1451      3780.4214      386.41763     -566.77495      8150.4105     -7194.1919     -879.61237      124320.83      49.909279      49.909279      49.909279      1.182455      -980.53475     -490.03772      616.33296    
   1999000   1999000        302.11857      816.28818      25792.629      24323.446      9743.1379      14580.308      4982.0084      5089.1466      3712.2814      382.29852     -534.07939      8144.6612     -7196.0085     -886.09204      123411.72      49.787326      49.787326      49.787326      1.1911656      1019.79        400.57691      1028.4977    
   2000000   2000000        297.93817      372.84154      24934.678      24257.804      9608.3225      14649.481      4911.6004      5119.9155      3722.403       378.2402      -440.05572      8150.7677     -7193.3901     -878.4708       124482.38      49.930889      49.930889      49.930889      1.1809204     -795.80481      334.62817      1579.7013    
Loop time of 10644.9 on 1 procs for 2000000 steps with 10820 atoms

Performance: 16.233 ns/day, 1.478 hours/ns, 187.883 timesteps/s, 2.033 Matom-step/s
99.8% CPU use with 1 MPI tasks x 1 OpenMP threads

MPI task timing breakdown:
Section |  min time  |  avg time  |  max time  |%varavg| %total
---------------------------------------------------------------
Pair    | 5484.8     | 5484.8     | 5484.8     |   0.0 | 51.53
Bond    | 1561.8     | 1561.8     | 1561.8     |   0.0 | 14.67
Kspace  | 2019.2     | 2019.2     | 2019.2     |   0.0 | 18.97
Neigh   | 550.83     | 550.83     | 550.83     |   0.0 |  5.17
Comm    | 90.723     | 90.723     | 90.723     |   0.0 |  0.85
Output  | 44.734     | 44.734     | 44.734     |   0.0 |  0.42
Modify  | 620.04     | 620.04     | 620.04     |   0.0 |  5.82
Other   |            | 272.7      |            |       |  2.56

Nlocal:          10820 ave       10820 max       10820 min
Histogram: 1 0 0 0 0 0 0 0 0 0
Nghost:          22918 ave       22918 max       22918 min
Histogram: 1 0 0 0 0 0 0 0 0 0
Neighs:              0 ave           0 max           0 min
Histogram: 1 0 0 0 0 0 0 0 0 0
FullNghs:  5.98178e+06 ave 5.98178e+06 max 5.98178e+06 min
Histogram: 1 0 0 0 0 0 0 0 0 0

Total # of neighbors = 5981784
Ave neighs/atom = 552.8451
Ave special neighs/atom = 5.7689464
Neighbor list builds = 66520
Dangerous builds = 0

# --- Cleanup ---
unfix npt_fix

undump dump_npt

# --- Write Output ---
write_dump all custom npt_extend_last.dump id type mol x y z xu yu zu vx vy vz modify sort id
write_data /home/arz2/PolyJarvis/data/PSU2/lammps/equil/npt_extend/npt_extend_out.data
System init for write_data ...
PPPM Kokkos initialization ...
  using 12-bit tables for long-range coulomb
  G vector (1/distance) = 0.30191443
  grid = 36 36 36
  stencil order = 5
  estimated absolute RMS force accuracy = 0.00029044865
  estimated relative force accuracy = 8.7467747e-07
  using double precision cuFFT
  3d grid and FFT values/proc = 79507 46656
Generated 28 of 28 mixed pair_coeff terms from sixthpower/sixthpower mixing rule

print "STAGE COMPLETE: NPT T=300.0->300.0K P=1.0->1.0atm steps=2000000"
STAGE COMPLETE: NPT T=300.0->300.0K P=1.0->1.0atm steps=2000000
quit
