units real
atom_style full
boundary p p p

# --- Force Field Styles ---
pair_style lj/class2/coul/long 9.5 9.5
kspace_style pppm 1e-6
dielectric 1.000000
bond_style class2
angle_style class2
dihedral_style class2
improper_style class2
special_bonds lj/coul 0 0 1
pair_modify mix sixthpower tail yes
neighbor 2.0 bin
neigh_modify delay 0 every 1 check yes
neigh_modify one 4000
# KOKKOS: package loaded via -pk kokkos on the command line

read_data /home/arz2/PolyJarvis/data/PSU4/lammps/equil/minimize/minimize_out.data
Reading data file ...
  orthogonal box = (0 0 0) to (61.892642 61.892642 61.892642)
  1 by 1 by 1 MPI processor grid
  reading atoms ...
  10816 atoms
  reading velocities ...
  10816 velocities
  scanning bonds ...
  4 = max bonds/atom
  scanning angles ...
  16 = max angles/atom
  scanning dihedrals ...
  38 = max dihedrals/atom
  scanning impropers ...
  12 = max impropers/atom
  orthogonal box = (0 0 0) to (61.892642 61.892642 61.892642)
  1 by 1 by 1 MPI processor grid
  reading bonds ...
  11608 bonds
  reading angles ...
  19600 angles
  reading dihedrals ...
  29184 dihedrals
  reading impropers ...
  8000 impropers
Finding 1-2 1-3 1-4 neighbors ...
  special bond factors lj:    0        0        1       
  special bond factors coul:  0        0        1       
     4 = max # of 1-2 neighbors
    10 = max # of 1-3 neighbors
    14 = max # of special neighbors
  special bonds CPU = 0.006 seconds
  read_data CPU = 0.354 seconds
include /home/arz2/PolyJarvis/data/PSU4/lammps/equil/emc_build.params
# LAMMPS parameters created by EMC v9.4.4, build Jul 31 2025 20:33:44

# Variables

variable	seed		index	734512
variable	ntotal		index	10816
variable	fshape		index	1
variable	output		index	emc_build
variable	field		index	pcff/pcff
variable	location1	index	/home/arz2/emc/field/
variable	nav		index	0.6022141179
variable	temperature	index	300
variable	radius		index	5
variable	nrelax		index	100
variable	weight_nonbond	index	0.0001
variable	weight_bond	index	0.0001
variable	weight_focus	index	1
variable	cutoff		index	9.5
variable	charge_cutoff	index	9.5
variable	kappa		index	4
variable	density1	index	0.62
variable	lprevious	index	0
variable	lphase		index	61.8926417911
variable	f_poly		index	8
variable	chem_repeat	index	*Oc1ccc(C(C)(C)c2ccc(Oc3ccc(S(=O)(=O)c4ccc(*)cc4)cc3)cc2)cc1
variable	chem_cap	index	*[H]
variable	lg_repeat	index	54
variable	lg_cap		index	1
variable	norm_poly	index	100
variable	l_poly		index	1352
variable	mg_repeat	index	414.52744
variable	mg_cap		index	0
variable	m_poly		index	10363.186
variable	n_poly		index	8
variable	mtotal		index	88523.72552
variable	nphase1		index	10816
variable	mphase1		index	88523.72552
variable	vphase1		index	237092.087694
variable	lbox		index	61.8926417911
variable	lphase1		index	61.8926417911
variable	lxx		index	61.8926417911
variable	lyy		index	61.8926417911
variable	lzz		index	61.8926417911
variable	lzy		index	0
variable	lzx		index	0
variable	lyx		index	0
variable	vtotal		index	237092.087694
variable	nl_poly		index	8

# Types

variable	type_c		index	1
variable	type_cp		index	2
variable	type_hc		index	3
variable	type_ho		index	4
variable	type_oe		index	5
variable	type_oc		index	6
variable	type_oh		index	7
variable	type_sf		index	8

variable	type_bond_c_c	index	1
variable	type_bond_c_cp	index	2
variable	type_bond_c_hc	index	3
variable	type_bond_cp_cp	index	4
variable	type_bond_cp_hc	index	5
variable	type_bond_cp_oc	index	6
variable	type_bond_cp_oh	index	7
variable	type_bond_cp_sf	index	8
variable	type_bond_ho_oh	index	9
variable	type_bond_oe_sf	index	10

variable	type_angle_c_c_c index	1
variable	type_angle_c_c_cp index	2
variable	type_angle_c_c_hc index	3
variable	type_angle_c_cp_cp index	4
variable	type_angle_cp_c_cp index	5
variable	type_angle_cp_cp_cp index	6
variable	type_angle_cp_cp_hc index	7
variable	type_angle_cp_cp_oc index	8
variable	type_angle_cp_cp_oh index	9
variable	type_angle_cp_cp_sf index	10
variable	type_angle_cp_oc_cp index	11
variable	type_angle_cp_oh_ho index	12
variable	type_angle_cp_sf_cp index	13
variable	type_angle_cp_sf_oe index	14
variable	type_angle_hc_c_hc index	15
variable	type_angle_oe_sf_oe index	16

# Clusters

variable	n0_poly		index	1
variable	n1_poly		index	8
variable	nl_poly		index	8

# Flags

variable	flag_charged	index	1

# Masses

mass		1    12.01115  # c
mass		2    12.01115  # cp
mass		3     1.00797  # hc
mass		4     1.00797  # ho
mass		5    15.99940  # o=
mass		6    15.99940  # oc
mass		7    15.99940  # oh
mass		8    32.06400  # sf

# Potentials

pair_modify	mix sixthpower tail yes
special_bonds	lj/coul 0 0 1

# Pair Coeffs

pair_coeff	 1  1    0.05400    4.01000  # c,c
pair_coeff	 2  2    0.06400    4.01000  # cp,cp
pair_coeff	 3  3    0.02000    2.99500  # hc,hc
pair_coeff	 4  4    0.01300    1.09800  # ho,ho
pair_coeff	 5  5    0.06000    3.53500  # o=,o=
pair_coeff	 6  6    0.24000    3.53500  # oc,oc
pair_coeff	 7  7    0.24000    3.53500  # oh,oh
pair_coeff	 8  8    0.25000    4.02700  # sf,sf

# Bond Coeffs

bond_coeff	 1    1.53000  299.67000 -501.77000  679.81000  # c,c
bond_coeff	 2    1.50100  321.90210 -521.82080  572.16280  # c,cp
bond_coeff	 3    1.10100  345.00000 -691.89000  844.60000  # c,hc
bond_coeff	 4    1.41700  470.83610 -627.61790 1327.63450  # cp,cp
bond_coeff	 5    1.09820  372.82510 -803.45260  894.31730  # cp,hc
bond_coeff	 6    1.37680  428.87980 -738.23510 1114.96550  # cp,oc
bond_coeff	 7    1.37680  428.87980 -738.23510 1114.96550  # cp,oh
bond_coeff	 8    1.72000  239.80240    0.00000    0.00000  # cp,sf
bond_coeff	 9    0.96500  532.50620 -1282.90500 2004.76580  # ho,oh
bond_coeff	10    1.43080  743.76000    0.00000    0.00000  # o=,sf

# Angle Coeffs

angle_coeff	 1  112.67000   39.51600   -7.44300   -9.55830  # c,c,c
angle_coeff	 2  108.40000   43.95940   -8.39240   -9.33790  # c,c,cp
angle_coeff	 3  110.77000   41.45300  -10.60400    5.12900  # c,c,hc
angle_coeff	 4  120.05000   44.71480  -22.73520    0.00000  # c,cp,cp
angle_coeff	 5  111.00000   44.32340   -9.44540    0.00000  # cp,c,cp
angle_coeff	 6  118.90000   61.02260  -34.99310    0.00000  # cp,cp,cp
angle_coeff	 7  117.94000   35.15580  -12.46820    0.00000  # cp,cp,hc
angle_coeff	 8  123.42000   73.67810  -21.67870    0.00000  # cp,cp,oc
angle_coeff	 9  123.42000   73.67810  -21.67870    0.00000  # cp,cp,oh
angle_coeff	10  120.00000   60.00000    0.00000    0.00000  # cp,cp,sf
angle_coeff	11  109.50000   60.00000    0.00000    0.00000  # cp,oc,cp
angle_coeff	12  108.19000   53.12500   -8.50160    0.00000  # cp,oh,ho
angle_coeff	13  102.00000   58.00000    0.00000    0.00000  # cp,sf,cp
angle_coeff	14  113.10000   42.30000    0.00000    0.00000  # cp,sf,o=
angle_coeff	15  107.66000   39.64100  -12.92100   -2.43180  # hc,c,hc
angle_coeff	16  119.32900  135.00000    0.00000    0.00000  # o=,sf,o=

# BondBond Coeffs

angle_coeff	 1 bb    0.00000    1.53000    1.53000  # c,c,c
angle_coeff	 2 bb    0.00000    1.53000    1.50100  # c,c,cp
angle_coeff	 3 bb    3.38720    1.53000    1.10100  # c,c,hc
angle_coeff	 4 bb   12.06760    1.50100    1.41700  # c,cp,cp
angle_coeff	 5 bb    0.00000    1.50100    1.50100  # cp,c,cp
angle_coeff	 6 bb   68.28560    1.41700    1.41700  # cp,cp,cp
angle_coeff	 7 bb    1.07950    1.41700    1.09820  # cp,cp,hc
angle_coeff	 8 bb   48.47540    1.41700    1.37680  # cp,cp,oc
angle_coeff	 9 bb   48.47540    1.41700    1.37680  # cp,cp,oh
angle_coeff	10 bb    0.00000    1.41700    1.72000  # cp,cp,sf
angle_coeff	11 bb    0.00000    1.37680    1.37680  # cp,oc,cp
angle_coeff	12 bb   20.65770    1.37680    0.96500  # cp,oh,ho
angle_coeff	13 bb    0.00000    1.72000    1.72000  # cp,sf,cp
angle_coeff	14 bb    0.00000    1.72000    1.43080  # cp,sf,o=
angle_coeff	15 bb    5.33160    1.10100    1.10100  # hc,c,hc
angle_coeff	16 bb   40.00000    1.43080    1.43080  # o=,sf,o=

# BondAngle Coeffs

angle_coeff	 1 ba    8.01600    8.01600    1.53000    1.53000  # c,c,c
angle_coeff	 2 ba    0.00000    0.00000    1.53000    1.50100  # c,c,cp
angle_coeff	 3 ba   20.75400   11.42100    1.53000    1.10100  # c,c,hc
angle_coeff	 4 ba   47.05790   31.07710    1.50100    1.41700  # c,cp,cp
angle_coeff	 5 ba    0.00000    0.00000    1.50100    1.50100  # cp,c,cp
angle_coeff	 6 ba   28.87080   28.87080    1.41700    1.41700  # cp,cp,cp
angle_coeff	 7 ba   20.00330   24.21830    1.41700    1.09820  # cp,cp,hc
angle_coeff	 8 ba   58.47900  107.68060    1.41700    1.37680  # cp,cp,oc
angle_coeff	 9 ba   58.47900  107.68060    1.41700    1.37680  # cp,cp,oh
angle_coeff	10 ba    0.00000    0.00000    1.41700    1.72000  # cp,cp,sf
angle_coeff	11 ba    0.00000    0.00000    1.37680    1.37680  # cp,oc,cp
angle_coeff	12 ba   53.86140   23.92240    1.37680    0.96500  # cp,oh,ho
angle_coeff	13 ba    0.00000    0.00000    1.72000    1.72000  # cp,sf,cp
angle_coeff	14 ba    0.00000    0.00000    1.72000    1.43080  # cp,sf,o=
angle_coeff	15 ba   18.10300   18.10300    1.10100    1.10100  # hc,c,hc
angle_coeff	16 ba    0.00000    0.00000    1.43080    1.43080  # o=,sf,o=

# Dihedral Coeffs

dihedral_coeff	 1    0.00000    0.00000    0.03160    0.00000   -0.16810    0.00000  # c,c,c,hc
dihedral_coeff	 2   -0.28020    0.00000   -0.06780    0.00000   -0.01220    0.00000  # c,c,cp,cp
dihedral_coeff	 3    0.00000    0.00000    4.40720    0.00000    0.00000    0.00000  # c,cp,cp,cp
dihedral_coeff	 4    0.00000    0.00000    1.55900    0.00000    0.00000    0.00000  # c,cp,cp,hc
dihedral_coeff	 5   -0.02280    0.00000    0.02800    0.00000   -0.18630    0.00000  # cp,c,c,hc
dihedral_coeff	 6   -0.28020    0.00000   -0.06780    0.00000   -0.01220    0.00000  # cp,c,cp,cp
dihedral_coeff	 7    8.36670    0.00000    1.19320    0.00000    0.00000    0.00000  # cp,cp,cp,cp
dihedral_coeff	 8    0.00000    0.00000    3.96610    0.00000    0.00000    0.00000  # cp,cp,cp,hc
dihedral_coeff	 9    0.00000    0.00000    4.84980    0.00000    0.00000    0.00000  # cp,cp,cp,oc
dihedral_coeff	10    0.00000    0.00000    4.84980    0.00000    0.00000    0.00000  # cp,cp,cp,oh
dihedral_coeff	11    0.00000    0.00000    3.00000    0.00000    0.00000    0.00000  # cp,cp,cp,sf
dihedral_coeff	12    0.00000    0.00000    1.80000    0.00000    0.00000    0.00000  # cp,cp,oc,cp
dihedral_coeff	13   -0.69000    0.00000    0.50970    0.00000    0.00950    0.00000  # cp,cp,oh,ho
dihedral_coeff	14    0.00000    0.00000    1.50000    0.00000    0.00000    0.00000  # cp,cp,sf,cp
dihedral_coeff	15    0.00000    0.00000    1.50000    0.00000    0.00000    0.00000  # cp,cp,sf,o=
dihedral_coeff	16    0.00000    0.00000    1.87690    0.00000    0.00000    0.00000  # hc,cp,cp,hc
dihedral_coeff	17    0.00000    0.00000    1.72340    0.00000    0.00000    0.00000  # hc,cp,cp,oc
dihedral_coeff	18    0.00000    0.00000    1.72340    0.00000    0.00000    0.00000  # hc,cp,cp,oh
dihedral_coeff	19    0.00000    0.00000    3.00000    0.00000    0.00000    0.00000  # hc,cp,cp,sf

# MiddleBondTorsion Coeffs

dihedral_coeff	 1 mbt  -14.87900   -3.65810   -0.31380    1.53000  # c,c,c,hc
dihedral_coeff	 2 mbt    0.00000    0.00000    0.00000    1.50100  # c,c,cp,cp
dihedral_coeff	 3 mbt    0.00000    9.17920    0.00000    1.41700  # c,cp,cp,cp
dihedral_coeff	 4 mbt    0.00000    3.94210    0.00000    1.41700  # c,cp,cp,hc
dihedral_coeff	 5 mbt    0.00000    0.00000    0.00000    1.53000  # cp,c,c,hc
dihedral_coeff	 6 mbt    0.00000    0.00000    0.00000    1.50100  # cp,c,cp,cp
dihedral_coeff	 7 mbt   27.59890   -2.31200    0.00000    1.41700  # cp,cp,cp,cp
dihedral_coeff	 8 mbt    0.00000   -1.15210    0.00000    1.41700  # cp,cp,cp,hc
dihedral_coeff	 9 mbt    0.00000    4.82550    0.00000    1.41700  # cp,cp,cp,oc
dihedral_coeff	10 mbt    0.00000    4.82550    0.00000    1.41700  # cp,cp,cp,oh
dihedral_coeff	11 mbt    0.00000    0.00000    0.00000    1.41700  # cp,cp,cp,sf
dihedral_coeff	12 mbt    0.00000    0.00000    0.00000    1.37680  # cp,cp,oc,cp
dihedral_coeff	13 mbt    1.15800    3.26970    3.51320    1.37680  # cp,cp,oh,ho
dihedral_coeff	14 mbt    0.00000    0.00000    0.00000    1.72000  # cp,cp,sf,cp
dihedral_coeff	15 mbt    0.00000    0.00000    0.00000    1.72000  # cp,cp,sf,o=
dihedral_coeff	16 mbt    0.00000    4.82280    0.00000    1.41700  # hc,cp,cp,hc
dihedral_coeff	17 mbt    0.00000    5.54320    0.00000    1.41700  # hc,cp,cp,oc
dihedral_coeff	18 mbt    0.00000    5.54320    0.00000    1.41700  # hc,cp,cp,oh
dihedral_coeff	19 mbt    0.00000    0.00000    0.00000    1.41700  # hc,cp,cp,sf

# EndBondTorsion Coeffs

dihedral_coeff	 1 ebt    0.24860    0.24220   -0.09250    0.08140    0.05910    0.22190    1.53000    1.10100  # c,c,c,hc
dihedral_coeff	 2 ebt    0.00000    0.00000    0.00000    0.00000    0.00000    0.00000    1.53000    1.41700  # c,c,cp,cp
dihedral_coeff	 3 ebt    0.00000    0.24210    0.00000    0.00000   -0.69180    0.00000    1.50100    1.41700  # c,cp,cp,cp
dihedral_coeff	 4 ebt    0.00000   -1.79700    0.00000    0.00000   -0.48790    0.00000    1.50100    1.09820  # c,cp,cp,hc
dihedral_coeff	 5 ebt    0.00000    0.00000    0.00000    0.00000    0.00000    0.00000    1.50100    1.10100  # cp,c,c,hc
dihedral_coeff	 6 ebt    0.00000    0.00000    0.00000    0.00000    0.00000    0.00000    1.50100    1.41700  # cp,c,cp,cp
dihedral_coeff	 7 ebt   -0.11850    6.32040    0.00000   -0.11850    6.32040    0.00000    1.41700    1.41700  # cp,cp,cp,cp
dihedral_coeff	 8 ebt    0.00000   -6.89580    0.00000    0.00000   -0.46690    0.00000    1.41700    1.09820  # cp,cp,cp,hc
dihedral_coeff	 9 ebt    0.00000    0.26550    0.00000    0.00000    4.89050    0.00000    1.41700    1.37680  # cp,cp,cp,oc
dihedral_coeff	10 ebt    0.00000    0.26550    0.00000    0.00000    4.89050    0.00000    1.41700    1.37680  # cp,cp,cp,oh
dihedral_coeff	11 ebt    0.00000    0.00000    0.00000    0.00000    0.00000    0.00000    1.41700    1.72000  # cp,cp,cp,sf
dihedral_coeff	12 ebt    0.00000    0.00000    0.00000    0.00000    0.00000    0.00000    1.41700    1.37680  # cp,cp,oc,cp
dihedral_coeff	13 ebt    0.90000   -1.34560    1.19000    3.41320    0.58730   -0.13230    1.41700    0.96500  # cp,cp,oh,ho
dihedral_coeff	14 ebt    0.00000    0.00000    0.00000    0.00000    0.00000    0.00000    1.41700    1.72000  # cp,cp,sf,cp
dihedral_coeff	15 ebt    0.00000    0.00000    0.00000    0.00000    0.00000    0.00000    1.41700    1.43080  # cp,cp,sf,o=
dihedral_coeff	16 ebt    0.00000   -0.68900    0.00000    0.00000   -0.68900    0.00000    1.09820    1.09820  # hc,cp,cp,hc
dihedral_coeff	17 ebt    0.00000   -1.58670    0.00000    0.00000    4.26410    0.00000    1.09820    1.37680  # hc,cp,cp,oc
dihedral_coeff	18 ebt    0.00000   -1.58670    0.00000    0.00000    4.26410    0.00000    1.09820    1.37680  # hc,cp,cp,oh
dihedral_coeff	19 ebt    0.00000    0.00000    0.00000    0.00000    0.00000    0.00000    1.09820    1.72000  # hc,cp,cp,sf

# AngleTorsion Coeffs

dihedral_coeff	 1 at   -0.24540    0.00000   -0.11360    0.31130    0.45160   -0.19880  112.67000  110.77000  # c,c,c,hc
dihedral_coeff	 2 at    0.00000    0.00000    0.00000    0.00000    0.00000    0.00000  108.40000  120.05000  # c,c,cp,cp
dihedral_coeff	 3 at    0.00000   -4.46830    0.00000    0.00000    3.89870    0.00000  120.05000  118.90000  # c,cp,cp,cp
dihedral_coeff	 4 at    0.00000   -0.12420    0.00000    0.00000    3.46010    0.00000  120.05000  117.94000  # c,cp,cp,hc
dihedral_coeff	 5 at    0.00000    0.00000    0.00000    0.00000    0.00000    0.00000  108.40000  110.77000  # cp,c,c,hc
dihedral_coeff	 6 at    0.00000    0.00000    0.00000    0.00000    0.00000    0.00000  111.00000  120.05000  # cp,c,cp,cp
dihedral_coeff	 7 at    1.97670    1.02390    0.00000    1.97670    1.02390    0.00000  118.90000  118.90000  # cp,cp,cp,cp
dihedral_coeff	 8 at    0.00000    2.50140    0.00000    0.00000    2.71470    0.00000  118.90000  117.94000  # cp,cp,cp,hc
dihedral_coeff	 9 at    0.00000   10.01550    0.00000    0.00000    1.74040    0.00000  118.90000  123.42000  # cp,cp,cp,oc
dihedral_coeff	10 at    0.00000   10.01550    0.00000    0.00000    1.74040    0.00000  118.90000  123.42000  # cp,cp,cp,oh
dihedral_coeff	11 at    0.00000    0.00000    0.00000    0.00000    0.00000    0.00000  118.90000  120.00000  # cp,cp,cp,sf
dihedral_coeff	12 at    0.00000    0.00000    0.00000    0.00000    0.00000    0.00000  123.42000  109.50000  # cp,cp,oc,cp
dihedral_coeff	13 at   -5.13600   -1.01220    0.00000    4.68520    0.02300   -0.59800  123.42000  108.19000  # cp,cp,oh,ho
dihedral_coeff	14 at    0.00000    0.00000    0.00000    0.00000    0.00000    0.00000  120.00000  102.00000  # cp,cp,sf,cp
dihedral_coeff	15 at    0.00000    0.00000    0.00000    0.00000    0.00000    0.00000  120.00000  113.10000  # cp,cp,sf,o=
dihedral_coeff	16 at    0.00000    2.45010    0.00000    0.00000    2.45010    0.00000  117.94000  117.94000  # hc,cp,cp,hc
dihedral_coeff	17 at    0.00000    1.87290    0.00000    0.00000    2.57060    0.00000  117.94000  123.42000  # hc,cp,cp,oc
dihedral_coeff	18 at    0.00000    1.87290    0.00000    0.00000    2.57060    0.00000  117.94000  123.42000  # hc,cp,cp,oh
dihedral_coeff	19 at    0.00000    0.00000    0.00000    0.00000    0.00000    0.00000  117.94000  120.00000  # hc,cp,cp,sf

# AngleAngleTorsion Coeffs

dihedral_coeff	 1 aat  -16.16400  112.67000  110.77000  # c,c,c,hc
dihedral_coeff	 2 aat    0.00000  108.40000  120.05000  # c,c,cp,cp
dihedral_coeff	 3 aat  -14.40970  120.05000  118.90000  # c,cp,cp,cp
dihedral_coeff	 4 aat    4.44440  120.05000  117.94000  # c,cp,cp,hc
dihedral_coeff	 5 aat    0.00000  108.40000  110.77000  # cp,c,c,hc
dihedral_coeff	 6 aat    0.00000  111.00000  120.05000  # cp,c,cp,cp
dihedral_coeff	 7 aat    0.00000  118.90000  118.90000  # cp,cp,cp,cp
dihedral_coeff	 8 aat   -4.81410  118.90000  117.94000  # cp,cp,cp,hc
dihedral_coeff	 9 aat  -21.02470  118.90000  123.42000  # cp,cp,cp,oc
dihedral_coeff	10 aat  -21.02470  118.90000  123.42000  # cp,cp,cp,oh
dihedral_coeff	11 aat    0.00000  118.90000  120.00000  # cp,cp,cp,sf
dihedral_coeff	12 aat    0.00000  123.42000  109.50000  # cp,cp,oc,cp
dihedral_coeff	13 aat   -4.60720  123.42000  108.19000  # cp,cp,oh,ho
dihedral_coeff	14 aat    0.00000  120.00000  102.00000  # cp,cp,sf,cp
dihedral_coeff	15 aat    0.00000  120.00000  113.10000  # cp,cp,sf,o=
dihedral_coeff	16 aat    0.35980  117.94000  117.94000  # hc,cp,cp,hc
dihedral_coeff	17 aat    4.22960  117.94000  123.42000  # hc,cp,cp,oc
dihedral_coeff	18 aat    4.22960  117.94000  123.42000  # hc,cp,cp,oh
dihedral_coeff	19 aat    0.00000  117.94000  120.00000  # hc,cp,cp,sf

# BondBond13 Coeffs

dihedral_coeff	 1 bb13    0.00000    1.53000    1.10100  # c,c,c,hc
dihedral_coeff	 2 bb13    0.00000    1.53000    1.41700  # c,c,cp,cp
dihedral_coeff	 3 bb13    2.50850    1.50100    1.41700  # c,cp,cp,cp
dihedral_coeff	 4 bb13    0.87430    1.50100    1.09820  # c,cp,cp,hc
dihedral_coeff	 5 bb13    0.00000    1.50100    1.10100  # cp,c,c,hc
dihedral_coeff	 6 bb13    0.00000    1.50100    1.41700  # cp,c,cp,cp
dihedral_coeff	 7 bb13   53.00000    1.41700    1.41700  # cp,cp,cp,cp
dihedral_coeff	 8 bb13   -6.27410    1.41700    1.09820  # cp,cp,cp,hc
dihedral_coeff	 9 bb13   -2.24360    1.41700    1.37680  # cp,cp,cp,oc
dihedral_coeff	10 bb13   -2.24360    1.41700    1.37680  # cp,cp,cp,oh
dihedral_coeff	11 bb13    0.00000    1.41700    1.72000  # cp,cp,cp,sf
dihedral_coeff	12 bb13    0.00000    1.41700    1.37680  # cp,cp,oc,cp
dihedral_coeff	13 bb13    1.15900    1.41700    0.96500  # cp,cp,oh,ho
dihedral_coeff	14 bb13    0.00000    1.41700    1.72000  # cp,cp,sf,cp
dihedral_coeff	15 bb13    0.00000    1.41700    1.43080  # cp,cp,sf,o=
dihedral_coeff	16 bb13   -1.70770    1.09820    1.09820  # hc,cp,cp,hc
dihedral_coeff	17 bb13    2.05170    1.09820    1.37680  # hc,cp,cp,oc
dihedral_coeff	18 bb13    2.05170    1.09820    1.37680  # hc,cp,cp,oh
dihedral_coeff	19 bb13    0.00000    1.09820    1.72000  # hc,cp,cp,sf

# Improper Coeffs

improper_coeff	 1    0.00000    0.00000  # c,c,c,cp
improper_coeff	 2    0.00000    0.00000  # c,c,cp,cp
improper_coeff	 3    0.00000    0.00000  # c,c,hc,hc
improper_coeff	 4    0.00000    0.00000  # c,hc,hc,hc
improper_coeff	 5    7.81530    0.00000  # cp,c,cp,cp
improper_coeff	 6    4.89120    0.00000  # cp,cp,cp,hc
improper_coeff	 7   13.04210    0.00000  # cp,cp,cp,oc
improper_coeff	 8   13.04210    0.00000  # cp,cp,cp,oh
improper_coeff	 9    0.00000    0.00000  # cp,cp,cp,sf
improper_coeff	10    0.00000    0.00000  # sf,cp,cp,o=
improper_coeff	11    0.00000    0.00000  # sf,cp,o=,o=

# AngleAngle Coeffs

improper_coeff	 1 aa    0.00000    0.00000    0.00000  112.67000  108.40000  108.40000  # c,c,c,cp
improper_coeff	 2 aa    0.00000    0.00000    0.00000  108.40000  108.40000  111.00000  # c,c,cp,cp
improper_coeff	 3 aa    0.27380   -0.48250    0.27380  110.77000  110.77000  107.66000  # c,c,hc,hc
improper_coeff	 4 aa   -0.31570   -0.31570   -0.31570  107.66000  107.66000  107.66000  # c,hc,hc,hc
improper_coeff	 5 aa    0.00000    0.00000    0.00000  120.05000  120.05000  118.90000  # cp,c,cp,cp
improper_coeff	 6 aa    0.00000    0.00000    0.00000  118.90000  117.94000  117.94000  # cp,cp,cp,hc
improper_coeff	 7 aa    0.00000    0.00000    0.00000  118.90000  123.42000  123.42000  # cp,cp,cp,oc
improper_coeff	 8 aa    0.00000    0.00000    0.00000  118.90000  123.42000  123.42000  # cp,cp,cp,oh
improper_coeff	 9 aa    0.00000    0.00000    0.00000  118.90000  120.00000  120.00000  # cp,cp,cp,sf
improper_coeff	10 aa    0.00000    0.00000    0.00000  102.00000  113.10000  113.10000  # sf,cp,cp,o=
improper_coeff	11 aa    0.00000    0.00000    0.00000  113.10000  113.10000  119.32900  # sf,cp,o=,o=


# --- Thermo Output ---
thermo_style custom step time temp press enthalpy etotal ke pe ebond eangle edihed eimp evdwl ecoul elong etail vol lx ly lz density pxx pyy pzz
thermo_modify flush yes
thermo 1000

# --- Trajectory ---
dump dump_nvt all custom 1000 nvt_softheat.dump id type mol x y z ix iy iz vx vy vz

# --- Restart Checkpointing ---
restart 10000 nvt_1.rst nvt_2.rst

# --- Initial Velocities (optional) ---
velocity all create 300.0 481627 mom yes rot yes dist gaussian

# --- SHAKE Constraints ---
# Constrains H-X bonds to allow 2fs timestep
# SHAKE disabled

# --- NVT Thermostat (Nose-Hoover) ---
# T_damp = 50.0 fs  (coupling timescale for heat exchange)
# Ramp: 300.0 K -> 780.0 K over 500000 steps
timestep 0.5
fix nvt_fix all nvt temp 300.0 780.0 50.0

run 500000
PPPM Kokkos initialization ...
  using 12-bit tables for long-range coulomb
  G vector (1/distance) = 0.2922111
  grid = 40 40 40
  stencil order = 5
  estimated absolute RMS force accuracy = 0.00034540139
  estimated relative force accuracy = 1.040166e-06
  using double precision cuFFT
  3d grid and FFT values/proc = 103823 64000
Generated 28 of 28 mixed pair_coeff terms from sixthpower/sixthpower mixing rule
Neighbor list info ...
  update: every = 1 steps, delay = 0 steps, check = yes
  max neighbors/atom: 4000, page size: 100000
  master list distance cutoff = 11.5
  ghost atom cutoff = 11.5
  binsize = 11.5, bins = 6 6 6
  1 neighbor lists, perpetual/occasional/extra = 1 0 0
  (1) pair lj/class2/coul/long/kk, perpetual
      attributes: full, newton off, kokkos_device
      pair build: full/bin/kk/device
      stencil: full/bin/3d
      bin: kk/device
Per MPI rank memory allocation (min/avg/max) = 53.38 | 53.38 | 53.38 Mbytes
   Step          Time           Temp          Press         Enthalpy        TotEng         KinEng         PotEng         E_bond        E_angle        E_dihed        E_impro         E_vdwl         E_coul         E_long         E_tail         Volume           Lx             Ly             Lz          Density          Pxx            Pyy            Pzz      
         0   0              300            1196.4377      21108.06       16971.084      9671.2382      7299.8455      1429.5385      2227.444       1565.8572      24.574968      1081.3561      7858.622      -6887.5471     -461.17137      237092.09      61.892642      61.892642      61.892642      0.61999999     1175.0533      1162.256       1252.0039    
      1000   500            305.35452     -236.33455      26500.297      27317.482      9843.8544      17473.627      5027.1291      5020.8965      4021.4844      407.80892      1954.5724      7919.7218     -6877.9858     -461.17137      237092.09      61.892642      61.892642      61.892642      0.61999999    -189.71042      18.552387     -537.84562    
      2000   1000           304.71801     -393.00753      25372.036      26730.956      9823.3347      16907.622      4756.3827      4931.6325      3804.3916      374.997        2014.2492      7904.9475     -6878.9789     -461.17137      237092.09      61.892642      61.892642      61.892642      0.61999999    -688.9386      -309.94919     -180.1348     
      3000   1500           302.14386     -1288.5353      22773.939      27229.365      9740.3507      17489.014      4951.7974      5133.9016      3975.2815      376.58141      2023.3269      7904.4511     -6876.3254     -461.17137      237092.09      61.892642      61.892642      61.892642      0.61999999    -1023.7976     -1405.6936     -1436.1149    
      4000   2000           304.57479     -1126.4961      23180.228      27075.364      9818.7178      17256.646      4839.1714      5061.5046      3899.8625      372.45001      2060.3906      7900.8741     -6877.6069     -461.17137      237092.09      61.892642      61.892642      61.892642      0.61999999    -1711.2392     -238.66859     -1429.5805    
      5000   2500           308.09976     -702.50931      24888.894      27317.992      9932.3539      17385.638      4987.6393      5039.7245      3931.6126      388.12415      2019.156       7899.0107     -6879.629      -461.17137      237092.09      61.892642      61.892642      61.892642      0.61999999    -439.80746     -812.60717     -855.1133     
      6000   3000           303.23472     -757.84804      24397.304      27017.749      9775.5173      17242.232      4798.126       5082.2661      3892.5285      380.65961      2062.7436      7906.8057     -6880.8977     -461.17137      237092.09      61.892642      61.892642      61.892642      0.61999999    -793.47431     -479.13649     -1000.9333    
      7000   3500           307.05825     -608.63781      25306.19       27410.704      9898.7782      17511.926      5014.0384      5034.7989      3946.3734      383.79887      2094.3719      7916.7149     -6878.1704     -461.17137      237092.09      61.892642      61.892642      61.892642      0.61999999    -601.65269     -662.69387     -561.56686    
      8000   4000           309.7876      -801.17865      24605.653      27375.925      9986.7656      17389.159      4902.7383      5034.104       3948.4233      394.35695      2079.2159      7907.6868     -6877.3663     -461.17137      237092.09      61.892642      61.892642      61.892642      0.61999999    -1156.0289     -436.32721     -811.17989    
      9000   4500           307.19116     -96.352034      27003.306      27336.466      9903.0628      17433.403      4884.7976      5172.4708      3813.1151      390.9331       2127.6282      7920.755      -6876.2964     -461.17137      237092.09      61.892642      61.892642      61.892642      0.61999999    -77.776433     -88.141358     -123.13831    
     10000   5000           311.8286      -881.77179      24418.773      27467.715      10052.562      17415.153      4922.8242      5124.4384      3941.4989      381.37425      2011.1183      7911.7628     -6877.864      -461.17137      237092.09      61.892642      61.892642      61.892642      0.61999999    -378.13681     -1290.9476     -976.23097    
     11000   5500           313.39966     -546.1945       25625.401      27514.002      10103.209      17410.793      4920.7876      5075.141       3883.1953      374.90386      2126.863       7908.5637     -6878.6614     -461.17137      237092.09      61.892642      61.892642      61.892642      0.61999999    -967.00654     -492.85199     -178.72498    
     12000   6000           312.30168     -821.7453       24700.581      27541.967      10067.813      17474.154      5010.997       5122.245       3894.9078      386.13109      2043.8062      7902.4612     -6886.3944     -461.17137      237092.09      61.892642      61.892642      61.892642      0.61999999    -1152.3123     -645.43575     -667.48781    
     13000   6500           313.15728     -1237.781       23214.631      27494.562      10095.396      17399.166      4837.8327      5058.2374      4114.8477      393.24793      1989.437       7893.1493     -6887.5858     -461.17137      237092.09      61.892642      61.892642      61.892642      0.61999999    -1431.5387     -1002.3275     -1279.4768    
     14000   7000           317.05849     -809.65412      25106.498      27906.076      10221.161      17684.915      5052.8238      5217.7385      4009.2445      419.20075      1958.8674      7915.2688     -6888.2288     -461.17137      237092.09      61.892642      61.892642      61.892642      0.61999999    -688.11195     -1203.8517     -536.99867    
     15000   7500           311.14062     -755.38151      24892.686      27504.603      10030.383      17474.219      5006.7006      5116.9179      3964.5181      396.55543      1964.4126      7909.4171     -6884.3024     -461.17137      237092.09      61.892642      61.892642      61.892642      0.61999999    -861.83343     -332.64293     -1071.6682    
     16000   8000           314.39029     -560.71097      25756.091      27694.887      10135.145      17559.742      4955.7535      5165.5177      4030.3617      390.26376      1984.9937      7914.0268     -6881.175      -461.17137      237092.09      61.892642      61.892642      61.892642      0.61999999    -795.12237     -573.16786     -313.84266    
     17000   8500           318.77623     -363.87126      26708.7        27966.874      10276.536      17690.337      5176.6651      5122.8342      3965.0097      407.42191      1999.384       7899.0879     -6880.0656     -461.17137      237092.09      61.892642      61.892642      61.892642      0.61999999    -441.14016     -779.49684      129.02322    
     18000   9000           314.84908     -992.62476      24334.816      27767.059      10149.935      17617.124      5041.6284      5182.9051      4047.4123      400.56857      1929.051       7899.4608     -6883.9021     -461.17137      237092.09      61.892642      61.892642      61.892642      0.61999999    -153.12043     -963.50769     -1861.2461    
     19000   9500           323.45324     -792.15804      25414.669      28153.749      10427.311      17726.438      5176.1815      5179.5696      3976.7947      411.44544      1977.951       7887.4359     -6882.9403     -461.17137      237092.09      61.892642      61.892642      61.892642      0.61999999    -1024.6628     -341.56537     -1010.2459    
     20000   10000          320.64892     -1120.5357      24142.331      28016.857      10336.907      17679.95       5099.6814      5246.7026      4034.067       386.04832      1897.727       7897.0119     -6881.2879     -461.17137      237092.09      61.892642      61.892642      61.892642      0.61999999    -1351.4057     -785.86659     -1224.3348    
     21000   10500          321.01782     -910.408        24795.219      27943.177      10348.799      17594.378      5087.2649      5226.53        3983.1372      379.8825       1903.3648      7897.3769     -6883.1784     -461.17137      237092.09      61.892642      61.892642      61.892642      0.61999999    -1247.5767     -946.55069     -537.09657    
     22000   11000          326.14202     -313.4471       27106.237      28190.057      10513.991      17676.067      5158.6796      5268.8027      3797.6309      402.37355      2026.0774      7901.7849     -6879.2824     -461.17137      237092.09      61.892642      61.892642      61.892642      0.61999999    -978.90723     -143.84105      182.40698    
     23000   11500          322.34785     -313.90795      26999.088      28084.502      10391.676      17692.826      5205.8586      5276.8131      3863.8696      402.88612      1926.2831      7896.4649     -6879.3495     -461.17137      237092.09      61.892642      61.892642      61.892642      0.61999999    -193.92646     -428.48895     -319.30843    
     24000   12000          327.18464     -514.6042       26671.091      28450.461      10547.602      17902.859      5166.2116      5277.5057      4076.9314      403.18623      1971.1083      7886.4053     -6878.4893     -461.17137      237092.09      61.892642      61.892642      61.892642      0.61999999    -212.72577     -524.69686     -806.38997    
     25000   12500          326.15948     -1094.6198      24409.425      28194.341      10514.553      17679.787      5111.0107      5174.3666      4069.8119      402.25772      1916.9547      7887.7245     -6882.3386     -461.17137      237092.09      61.892642      61.892642      61.892642      0.61999999    -643.42138     -1415.1637     -1225.2742    
     26000   13000          321.23095     -57.803558      27877.654      28077.524      10355.67       17721.854      5053.2816      5192.0609      4061.6533      424.56777      1968.196       7906.5202     -6884.4262     -461.17137      237092.09      61.892642      61.892642      61.892642      0.61999999     253.01785     -31.265165     -395.16336    
     27000   13500          328.14708     -894.08288      25280.638      28372.148      10578.629      17793.52       5059.298       5322.9412      4029.6726      405.51631      1958.9475      7895.4722     -6878.3282     -461.17137      237092.09      61.892642      61.892642      61.892642      0.61999999    -617.93683     -880.46366     -1183.8481    
     28000   14000          329.64617     -561.07587      26658.219      28598.276      10626.955      17971.321      5221.976       5305.2694      4075.1324      429.6373       1914.4817      7903.6004     -6878.7762     -461.17137      237092.09      61.892642      61.892642      61.892642      0.61999999    -779.45702     -490.1064      -413.66421    
     29000   14500          328.76723     -1052.2858      24827.364      28465.9        10598.621      17867.279      5238.4141      5209.8331      4060.0309      416.90459      1924.8034      7899.1363     -6881.8432     -461.17137      237092.09      61.892642      61.892642      61.892642      0.61999999    -1345.2886     -816.50634     -995.06259    
     30000   15000          327.58283     -1259.011       24069.824      28423.163      10560.438      17862.725      5124.4198      5273.3732      4120.6742      412.6668       1904.3124      7906.9113     -6879.6331     -461.17137      237092.09      61.892642      61.892642      61.892642      0.61999999    -749.98159     -1439.6197     -1587.4317    
     31000   15500          329.43308     -856.81299      25527.484      28490.125      10620.086      17870.039      5227.1023      5218.0723      4148.9572      408.75718      1837.9197      7905.6629     -6876.4327     -461.17137      237092.09      61.892642      61.892642      61.892642      0.61999999    -1783.2419     -300.2437      -486.9534     
     32000   16000          328.91698     -19.851147      28598.211      28666.851      10603.448      18063.403      5343.8915      5250.743       4091.8262      413.10311      1948.1932      7892.7569     -6877.111      -461.17137      237092.09      61.892642      61.892642      61.892642      0.61999999     648.83401      212.92504     -921.31249    
     33000   16500          334.64909     -616.99009      26469.631      28603.025      10788.237      17814.788      5100.0325      5334.1016      4047.5743      389.3791       1926.3453      7897.5423     -6880.1872     -461.17137      237092.09      61.892642      61.892642      61.892642      0.61999999    -407.05458     -533.92463     -909.99107    
     34000   17000          330.71766     -872.38433      25589.828      28606.31       10661.497      17944.812      5161.0475      5275.1505      4130.8187      430.01405      1921.9764      7904.6024     -6878.797      -461.17137      237092.09      61.892642      61.892642      61.892642      0.61999999    -1070.2811     -559.0145      -987.85734    
     35000   17500          332.4687      -881.43276      25771.187      28818.957      10717.947      18101.01       5212.1191      5301.1253      4165.2462      430.00019      1958.4672      7908.1293     -6874.0773     -461.17137      237092.09      61.892642      61.892642      61.892642      0.61999999    -922.3572      -966.48881     -755.45225    
     36000   18000          332.4125      -694.26474      26191.93       28592.52       10716.135      17876.385      5061.17        5303.4532      4155.0704      407.64672      1917.4078      7908.2676     -6876.6304     -461.17137      237092.09      61.892642      61.892642      61.892642      0.61999999    -633.59346     -725.65869     -723.54208    
     37000   18500          332.06891     -559.40544      26710.694      28644.975      10705.058      17939.917      5058.3361      5397.1526      4136.4773      428.30514      1897.4241      7903.5361     -6881.3142     -461.17137      237092.09      61.892642      61.892642      61.892642      0.61999999    -221.65027     -624.72657     -831.83949    
     38000   19000          336.54909     -538.64369      26950.395      28812.888      10849.488      17963.4        5143.7492      5359.1098      4123.6648      422.0493       1871.5021      7918.057      -6874.7324     -461.17137      237092.09      61.892642      61.892642      61.892642      0.61999999    -905.90647     -188.41546     -521.60913    
     39000   19500          338.21611     -855.28294      26138.027      29095.377      10903.228      18192.148      5316.0883      5384.7182      4225.2769      422.76263      1814.4156      7908.2198     -6879.3329     -461.17137      237092.09      61.892642      61.892642      61.892642      0.61999999    -447.78688     -1356.5294     -761.5325     
     40000   20000          335.62154     -321.35086      27877.023      28988.173      10819.586      18168.587      5355.231       5351.3791      4074.6004      424.18558      1927.9487      7910.4594     -6875.2176     -461.17137      237092.09      61.892642      61.892642      61.892642      0.61999999    -202.21749     -315.75936     -446.07573    
     41000   20500          334.94887     -1360.0238      24278.979      28981.594      10797.901      18183.693      5193.5452      5384.7166      4269.0624      424.4128       1886.4648      7904.4981     -6879.0069     -461.17137      237092.09      61.892642      61.892642      61.892642      0.61999999    -1673.3545     -813.78708     -1592.9297    
     42000   21000          339.00071     -664.12875      26801.758      29098.146      10928.522      18169.623      5377.1893      5373.5184      4091.3762      431.07644      1879.7212      7898.2395     -6881.4976     -461.17137      237092.09      61.892642      61.892642      61.892642      0.61999999    -1162.6894     -895.07476      65.377893    
     43000   21500          336.76794     -645.93975      26929.98       29163.475      10856.543      18306.932      5275.7892      5462.8999      4239.6873      425.06374      1873.3618      7909.7619     -6879.6321     -461.17137      237092.09      61.892642      61.892642      61.892642      0.61999999    -997.2561      -27.443275     -913.11987    
     44000   22000          336.78493     -507.12356      27360.638      29114.142      10857.091      18257.051      5277.1612      5401.5906      4171.7775      434.68222      1946.0753      7905.0288     -6879.2648     -461.17137      237092.09      61.892642      61.892642      61.892642      0.61999999    -335.35043     -832.95569     -353.06457    
     45000   22500          342.92652     -792.41953      26539.149      29279.133      11055.08       18224.053      5318.7246      5408.2756      4112.8647      430.90663      1913.6259      7917.4654     -6877.81       -461.17137      237092.09      61.892642      61.892642      61.892642      0.61999999    -1008.8291     -864.7943      -503.63522    
     46000   23000          344.32655     -516.52266      27631.897      29417.9        11100.214      18317.687      5264.612       5501.1498      4210.0991      443.92513      1872.2601      7905.4622     -6879.8217     -461.17137      237092.09      61.892642      61.892642      61.892642      0.61999999    -518.36676     -517.2989      -513.90233    
     47000   23500          346.35671     -907.49045      26394.636      29532.506      11165.661      18366.845      5359.829       5507.0968      4120.9623      427.65589      1931.091       7902.2471     -6882.0368     -461.17137      237092.09      61.892642      61.892642      61.892642      0.61999999    -367.11873     -962.95492     -1392.3977    
     48000   24000          340.6073      -350.8527       28198.487      29411.647      10980.314      18431.332      5500.4684      5483.8174      4121.9878      431.80142      1869.1947      7910.6813     -6886.6187     -461.17137      237092.09      61.892642      61.892642      61.892642      0.61999999    -368.36654     -569.87591     -114.31566    
     49000   24500          353.18472     -393.17602      28262.157      29621.66       11385.779      18235.881      5267.3734      5392.1322      4248.7882      450.40628      1861.9077      7903.3847     -6888.1114     -461.17137      237092.09      61.892642      61.892642      61.892642      0.61999999    -562.54508     -72.858995     -544.12399    
     50000   25000          352.96542     -864.37732      26849.727      29838.523      11378.709      18459.814      5365.6495      5547.9752      4212.937       441.70294      1877.8985      7901.2575     -6887.6066     -461.17137      237092.09      61.892642      61.892642      61.892642      0.61999999    -1086.227      -512.51203     -994.39288    
     51000   25500          346.11343     -576.98966      27564.821      29559.904      11157.818      18402.085      5345.2083      5532.9184      4223.3783      419.47137      1841.3979      7919.9149     -6880.2037     -461.17137      237092.09      61.892642      61.892642      61.892642      0.61999999    -538.76761     -640.04951     -552.15187    
     52000   26000          349.17557      522.28127      31430.456      29624.541      11256.534      18368.007      5437.37        5480.4336      4063.341       434.32479      1918.6456      7917.4482     -6883.5562     -461.17137      237092.09      61.892642      61.892642      61.892642      0.61999999     585.89168      977.68978      3.2623471    
     53000   26500          355.2495      -321.88847      28846.946      29959.954      11452.342      18507.612      5379.7059      5533.2744      4231.5486      440.40608      1893.4973      7912.3859     -6883.206      -461.17137      237092.09      61.892642      61.892642      61.892642      0.61999999    -649.46745     -23.878745     -292.31922    
     54000   27000          353.27745     -846.86034      26932.332      29860.559      11388.768      18471.791      5412.0489      5503.2122      4251.9758      426.2612       1861.1944      7902.3451     -6885.2467     -461.17137      237092.09      61.892642      61.892642      61.892642      0.61999999     5.0220722     -1096.5467     -1449.0563    
     55000   27500          359.16466     -234.37156      29323.192      30133.589      11578.557      18555.033      5461.8562      5536.2413      4134.1143      446.37094      1956.0368      7904.9522     -6884.5391     -461.17137      237092.09      61.892642      61.892642      61.892642      0.61999999     41.230143     -95.992113     -648.35272    
     56000   28000          347.60881     -413.7819       28481.187      29911.939      11206.025      18705.914      5696.7703      5457.0899      4152.3289      454.15208      1926.1223      7901.7245     -6882.2744     -461.17137      237092.09      61.892642      61.892642      61.892642      0.61999999    -669.08976     -82.07572      -490.18022    
     57000   28500          354.6457       152.12192      30537.731      30011.733      11432.877      18578.856      5515.1782      5564.7169      4097.3498      445.02083      1953.6365      7888.9832     -6886.0297     -461.17137      237092.09      61.892642      61.892642      61.892642      0.61999999     311.50516      402.92639     -258.06578    
     58000   29000          352.3783      -169.83158      29440.923      30028.158      11359.782      18668.376      5482.9965      5520.5192      4277.808       449.77103      1915.3652      7904.5259     -6882.6098     -461.17137      237092.09      61.892642      61.892642      61.892642      0.61999999     586.0524      -161.25596     -934.29117    
     59000   29500          354.43813     -891.20033      26954.238      30035.781      11426.185      18609.596      5408.9646      5537.7188      4299.0309      434.60323      1911.9575      7900.8367     -6883.5157     -461.17137      237092.09      61.892642      61.892642      61.892642      0.61999999    -87.540715     -1314.4575     -1271.6028    
     60000   30000          360.30481     -612.02471      28139.609      30255.835      11615.312      18640.522      5510.2489      5519.5284      4233.8612      440.79631      1911.194       7903.6071     -6878.7137     -461.17137      237092.09      61.892642      61.892642      61.892642      0.61999999    -846.06233     -520.25537     -469.75644    
     61000   30500          358.66564     -1122.6475      26511.475      30393.304      11562.47       18830.834      5542.6419      5563.6009      4408.3444      439.98204      1853.4363      7904.8031     -6881.9742     -461.17137      237092.09      61.892642      61.892642      61.892642      0.61999999    -1116.1811     -476.13566     -1775.6258    
     62000   31000          361.07056     -138.78924      29981.773      30461.671      11639.998      18821.673      5570.8595      5609.0798      4231.0949      454.94887      1941.4721      7898.3709     -6884.1526     -461.17137      237092.09      61.892642      61.892642      61.892642      0.61999999     48.059913     -439.29238     -25.135265    
     63000   31500          359.12671     -33.664375      30171.645      30288.048      11577.333      18710.715      5562.2352      5479.1884      4275.7696      456.30774      1916.9905      7903.759      -6883.5356     -461.17137      237092.09      61.892642      61.892642      61.892642      0.61999999    -274.46327      558.62757     -385.15743    
     64000   32000          362.4417       33.647995      30539.229      30422.883      11684.2        18738.683      5548.868       5598.1638      4310.7875      440.56308      1817.8195      7904.2489     -6881.7683     -461.17137      237092.09      61.892642      61.892642      61.892642      0.61999999     78.178257     -99.84734       122.61307    
     65000   32500          364.26484     -164.58062      30009.413      30578.491      11742.974      18835.517      5618.9158      5593.3112      4196.1006      460.29475      1946.0451      7903.887      -6883.0371     -461.17137      237092.09      61.892642      61.892642      61.892642      0.61999999     687.85387     -337.85595     -843.73977    
     66000   33000          359.86296     -994.51196      27121.06       30559.829      11601.068      18958.761      5678.9151      5611.992       4340.9949      446.80468      1853.8741      7906.3345     -6880.1542     -461.17137      237092.09      61.892642      61.892642      61.892642      0.61999999    -420.46636     -735.47927     -1827.5902    
     67000   33500          361.4699      -365.98053      29471.209      30736.677      11652.872      19083.805      5674.5588      5668.6711      4273.2795      470.89023      1960.6162      7917.635      -6881.8457     -461.17137      237092.09      61.892642      61.892642      61.892642      0.61999999     102.85166     -295.80841     -904.98484    
     68000   34000          364.1304      -1045.7466      27114.65       30730.575      11738.64       18991.935      5612.0101      5620.5653      4438.7298      459.93343      1823.5689      7918.795      -6881.6673     -461.17137      237092.09      61.892642      61.892642      61.892642      0.61999999    -759.16843     -1761.1066     -616.96481    
     69000   34500          364.60562     -479.64797      28906.943      30565.443      11753.959      18811.484      5529.629       5716.0639      4259.5452      439.41322      1820.2891      7923.5834     -6877.0402     -461.17137      237092.09      61.892642      61.892642      61.892642      0.61999999    -73.399922     -593.55584     -771.98814    
     70000   35000          368.19386     -378.20506      29554.686      30862.423      11869.635      18992.788      5695.8054      5570.3992      4339.3785      452.09765      1896.2363      7921.4376     -6882.5669     -461.17137      237092.09      61.892642      61.892642      61.892642      0.61999999    -976.32113     -78.952773     -79.341274    
     71000   35500          365.6749      -534.92772      28934.631      30784.274      11788.43       18995.844      5645.0869      5687.4771      4329.5208      467.14609      1837.4508      7913.533      -6884.3707     -461.17137      237092.09      61.892642      61.892642      61.892642      0.61999999    -186.02573      57.258776     -1476.0162    
     72000   36000          374.05748     -735.11899      28505.21       31047.064      12058.663      18988.401      5667.2472      5732.5833      4317.8668      455.0156       1788.6258      7912.2019     -6885.1396     -461.17137      237092.09      61.892642      61.892642      61.892642      0.61999999    -1265.2998     -908.66558     -31.391641    
     73000   36500          366.51145     -386.54151      29439.103      30775.665      11815.398      18960.266      5619.4911      5622.7634      4329.2627      457.82921      1916.58        7897.8958     -6883.5561     -461.17137      237092.09      61.892642      61.892642      61.892642      0.61999999    -617.71212     -445.17892     -96.733487    
     74000   37000          374.87582     -232.65524      30383.107      31187.569      12085.045      19102.525      5590.5952      5718.1999      4407.9871      473.46412      1876.7084      7917.4156     -6881.8455     -461.17137      237092.09      61.892642      61.892642      61.892642      0.61999999    -286.98844     -418.05635      7.0790802    
     75000   37500          370.63666     -883.11674      27886.835      30940.427      11948.385      18992.043      5623.0166      5617.4858      4447.4616      463.10198      1815.2504      7912.4679     -6886.7417     -461.17137      237092.09      61.892642      61.892642      61.892642      0.61999999    -274.65658     -1725.974      -648.71962    
     76000   38000          367.13255     -616.1247       28858.318      30988.72       11835.421      19153.299      5661.7022      5560.9197      4543.3553      472.96273      1902.0917      7896.6728     -6884.4055     -461.17137      237092.09      61.892642      61.892642      61.892642      0.61999999     65.274544     -931.1649      -982.48375    
     77000   38500          373.01282     -219.97955      30539.652      31300.285      12024.986      19275.299      5668.6813      5689.4175      4547.6167      481.42071      1862.4316      7908.0948     -6882.3638     -461.17137      237092.09      61.892642      61.892642      61.892642      0.61999999    -596.115       -385.10078      321.27713    
     78000   39000          378.43822     -534.08853      29478.759      31325.5        12199.887      19125.613      5661.7093      5733.7025      4398.1441      474.64504      1840.7505      7899.1434     -6882.4817     -461.17137      237092.09      61.892642      61.892642      61.892642      0.61999999    -760.37441     -18.150403     -823.74077    
     79000   39500          374.99184     -75.575358      31030.967      31292.287      12088.785      19203.503      5714.9808      5670.6516      4388.4408      466.48872      1931.3223      7912.8028     -6881.1845     -461.17137      237092.09      61.892642      61.892642      61.892642      0.61999999     7.1528146      251.5711      -485.44999    
     80000   40000          377.20214     -372.17398      30185.032      31471.914      12160.039      19311.875      5727.5157      5761.9659      4473.6175      482.0316       1826.1046      7924.6886     -6884.0486     -461.17137      237092.09      61.892642      61.892642      61.892642      0.61999999    -567.18173     -132.12304     -417.21715    
     81000   40500          374.08697     -886.95223      28238.725      31305.58       12059.614      19245.966      5731.8883      5704.0325      4442.9073      483.14593      1879.0741      7892.8435     -6887.9261     -461.17137      237092.09      61.892642      61.892642      61.892642      0.61999999    -1100.8847     -580.58119     -979.3908     
     82000   41000          377.25533     -457.06083      29823.762      31404.162      12161.754      19242.408      5688.0981      5694.9177      4457.488       493.36322      1896.2006      7897.0585     -6884.7182     -461.17137      237092.09      61.892642      61.892642      61.892642      0.61999999    -772.99344     -1204.6499      606.46083    
     83000   41500          376.2409      -738.86182      29117.54       31672.336      12129.051      19543.285      5814.3722      5918.4659      4435.1937      486.01014      1865.4403      7906.9287     -6883.1261     -461.17137      237092.09      61.892642      61.892642      61.892642      0.61999999    -245.63981     -793.23806     -1177.7076    
     84000   42000          380.72521      433.85072      33227.016      31726.871      12273.614      19453.257      5872.4224      5802.0781      4353.6108      486.11215      1926.1876      7896.9733     -6884.1275     -461.17137      237092.09      61.892642      61.892642      61.892642      0.61999999     320.89609      818.50627      162.1498     
     85000   42500          381.91693     -411.80953      30085.169      31509.101      12312.032      19197.069      5721.7182      5646.3058      4461.3803      475.78214      1864.4035      7915.686      -6888.207      -461.17137      237092.09      61.892642      61.892642      61.892642      0.61999999    -492.98935     -646.53363     -95.905591    
     86000   43000          377.42307     -764.12402      28996.6        31638.745      12167.161      19471.584      5766.644       5837.2936      4534.1432      487.50253      1820.3249      7909.9941     -6884.3183     -461.17137      237092.09      61.892642      61.892642      61.892642      0.61999999    -933.49438     -364.40147     -994.47621    
     87000   43500          389.44152      268.40853      33115.702      32187.614      12554.606      19633.009      5830.7565      5766.7649      4541.1393      508.52897      1967.6637      7905.837      -6887.6819     -461.17137      237092.09      61.892642      61.892642      61.892642      0.61999999     840.88758     -164.15776      128.49577    
     88000   44000          383.25596     -912.84508      28566.008      31722.394      12355.199      19367.195      5859.0044      5820.2591      4365.7293      468.63709      1827.1151      7916.3579     -6889.9084     -461.17137      237092.09      61.892642      61.892642      61.892642      0.61999999    -1363.9603     -1023.9143     -350.66067    
     89000   44500          384.42805     -796.47294      29135.072      31889.072      12392.984      19496.088      5806.1267      5770.7753      4517.5376      478.94459      1910.4829      7900.019      -6887.7983     -461.17137      237092.09      61.892642      61.892642      61.892642      0.61999999    -354.19117     -731.76044     -1303.4672    
     90000   45000          385.1036       310.33255      33158.583      32085.532      12414.762      19670.77       5943.74        5799.0639      4461.5346      489.74472      1957.733       7911.7802     -6892.8263     -461.17137      237092.09      61.892642      61.892642      61.892642      0.61999999     414.48878      743.29693     -226.78807    
     91000   45500          389.34971     -125.66217      31922.559      32357.066      12551.646      19805.42       5903.7178      5994.4766      4555.5853      489.17677      1839.9428      7914.2441     -6891.7231     -461.17137      237092.09      61.892642      61.892642      61.892642      0.61999999    -158.4315      -144.79431     -73.760707    
     92000   46000          389.16742     -196.7127       31422.294      32102.476      12545.77       19556.706      5898.7939      5828.0099      4417.9923      477.21969      1913.9003      7909.8466     -6889.0562     -461.17137      237092.09      61.892642      61.892642      61.892642      0.61999999     348.27889     -294.80226     -643.61473    
     93000   46500          387.47377     -714.77595      29715.823      32187.336      12491.17       19696.165      5838.5243      5914.4235      4605.2112      467.00447      1853.3327      7906.0033     -6888.3342     -461.17137      237092.09      61.892642      61.892642      61.892642      0.61999999    -746.14277     -19.336217     -1378.8489    
     94000   47000          391.19673     -28.339511      32336.327      32434.318      12611.189      19823.129      6042.1316      5805.254       4599.5035      482.86638      1870.5502      7907.92       -6885.0969     -461.17137      237092.09      61.892642      61.892642      61.892642      0.61999999     512.343       -834.66627      237.30473    
     95000   47500          395.8285      -802.77396      29875.022      32650.81       12760.506      19890.304      5937.7091      5862.7642      4682.9197      480.39207      1899.7045      7910.5062     -6883.6919     -461.17137      237092.09      61.892642      61.892642      61.892642      0.61999999    -558.89982     -1091.0745     -758.34759    
     96000   48000          384.94135     -494.44874      30610.468      32320.145      12409.532      19910.614      5986.3043      5933.2496      4535.9647      481.78197      1938.811       7912.9814     -6878.4793     -461.17137      237092.09      61.892642      61.892642      61.892642      0.61999999    -620.68565     -311.50867     -551.15192    
     97000   48500          389.83387     -566.5016       30595.206      32554.024      12567.254      19986.77       5981.2039      5953.5397      4669.7411      503.16625      1836.7297      7922.0945     -6879.7054     -461.17137      237092.09      61.892642      61.892642      61.892642      0.61999999    -707.15158     -474.77058     -517.58264    
     98000   49000          394.90789     -217.33561      31822.427      32573.919      12730.827      19843.091      6004.2463      5851.2651      4586.9404      475.96267      1895.2551      7911.7131     -6882.2915     -461.17137      237092.09      61.892642      61.892642      61.892642      0.61999999    -250.5947      -417.44673      16.034597    
     99000   49500          396.57104     -605.85915      30514.887      32609.793      12784.443      19825.35       5960.7306      5944.1797      4539.14        489.75946      1858.0333      7916.0952     -6882.5879     -461.17137      237092.09      61.892642      61.892642      61.892642      0.61999999    -482.16006     -541.72897     -793.68842    
    100000   50000          399.26083     -794.2235       30041.432      32787.654      12871.155      19916.499      6062.3422      5812.3043      4570.5078      497.29435      1939.0448      7912.9373     -6877.9318     -461.17137      237092.09      61.892642      61.892642      61.892642      0.61999999    -524.25586     -772.9379      -1085.4767    
    101000   50500          397.23315     -888.281        29678.733      32750.182      12805.788      19944.394      6014.0112      5901.1687      4619.9309      496.17681      1898.5964      7899.6431     -6885.1326     -461.17137      237092.09      61.892642      61.892642      61.892642      0.61999999    -940.90166     -865.46364     -858.4777     
    102000   51000          396.67642     -989.46338      29457.664      32878.976      12787.84       20091.136      6018.8934      5983.2574      4599.6683      507.58258      1948.458       7915.0491     -6881.7729     -461.17137      237092.09      61.892642      61.892642      61.892642      0.61999999    -655.85022     -1449.9472     -862.59269    
    103000   51500          393.3675      -1327.2037      28127.264      32716.396      12681.169      20035.226      5993.0089      5976.6919      4613.841       506.62115      1904.8815      7918.6787     -6878.497      -461.17137      237092.09      61.892642      61.892642      61.892642      0.61999999    -925.2983      -1784.3124     -1272.0004    
    104000   52000          399.4606      -808.05348      30187.054      32981.096      12877.595      20103.501      6025.6623      5936.5263      4664.0168      511.4811       1945.3203      7904.9755     -6884.4812     -461.17137      237092.09      61.892642      61.892642      61.892642      0.61999999    -325.33292     -529.02277     -1569.8047    
    105000   52500          400.2917      -556.46374      31139.978      33064.088      12904.388      20159.7        6099.7223      6034.1721      4528.1597      526.25406      1943.615       7914.6458     -6886.8693     -461.17137      237092.09      61.892642      61.892642      61.892642      0.61999999    -152.34481     -415.6097      -1101.4367    
    106000   53000          402.35221     -558.58753      31214.102      33145.555      12970.814      20174.741      6066.498       6035.7479      4661.6418      518.38506      1868.7483      7906.398      -6882.6779     -461.17137      237092.09      61.892642      61.892642      61.892642      0.61999999    -277.05475     -653.24114     -745.4667     
    107000   53500          402.57936     -452.01715      31511.525      33074.485      12978.136      20096.349      6080.2409      5960.9235      4585.3206      508.4196       1955.5059      7893.9248     -6887.9864     -461.17137      237092.09      61.892642      61.892642      61.892642      0.61999999    -580.94188     -299.76533     -475.34423    
    108000   54000          397.56594      167.76043      33501.392      32921.319      12816.516      20104.803      6134.1279      5959.3013      4528.6539      502.15207      1971.0011      7896.9412     -6887.3749     -461.17137      237092.09      61.892642      61.892642      61.892642      0.61999999     187.28041     -28.773097      344.77398    
    109000   54500          405.09535     -762.99131      30608.515      33246.744      13059.246      20187.499      6082.1943      6045.6299      4590.8226      514.52536      1929.8719      7910.1924     -6885.7376     -461.17137      237092.09      61.892642      61.892642      61.892642      0.61999999    -603.93434     -354.83739     -1330.2022    
    110000   55000          408.17899     -895.00961      30279.171      33373.886      13158.654      20215.232      6176.3631      5996.6379      4614.2564      504.45488      1905.1242      7907.7458     -6889.3499     -461.17137      237092.09      61.892642      61.892642      61.892642      0.61999999    -1199.5683     -1173.3202     -312.14029    
    111000   55500          402.66076     -202.41133      32451.964      33151.851      12980.76       20171.09       6121.9301      5876.7039      4663.6573      529.57984      1955.8578      7910.1626     -6886.8015     -461.17137      237092.09      61.892642      61.892642      61.892642      0.61999999    -358.07193     -312.12475      62.962698    
    112000   56000          403.74469     -955.56524      29866.965      33171.066      13015.704      20155.362      6053.4603      6029.6359      4684.9458      491.14811      1891.6837      7894.9085     -6890.4199     -461.17137      237092.09      61.892642      61.892642      61.892642      0.61999999    -872.16129     -922.24524     -1072.2892    
    113000   56500          408.74153     -383.38342      31947.736      33273.378      13176.789      20096.589      6113.0088      5959.8122      4614.4196      516.63919      1871.9149      7910.6494     -6889.8547     -461.17137      237092.09      61.892642      61.892642      61.892642      0.61999999    -387.94628     -85.314141     -676.88984    
    114000   57000          403.25194     -485.36048      31642.275      33320.528      12999.819      20320.71       6163.495       6034.9609      4655.3348      506.55671      1927.0714      7920.9596     -6887.6689     -461.17137      237092.09      61.892642      61.892642      61.892642      0.61999999    -998.6911      -81.33481      -376.05552    
    115000   57500          412.21224     -1404.7129      28681.319      33538.458      13288.676      20249.782      6067.76        6028.4949      4739.6905      515.32673      1877.0421      7910.1382     -6888.6703     -461.17137      237092.09      61.892642      61.892642      61.892642      0.61999999    -1595.6736     -1884.9767     -733.48831    
    116000   58000          407.59385     -662.8996       31106.229      33398.367      13139.791      20258.576      6092.4958      6161.5221      4666.3513      504.18666      1810.3221      7909.8596     -6886.1613     -461.17137      237092.09      61.892642      61.892642      61.892642      0.61999999    -759.83293     -108.11118     -1120.7547    
    117000   58500          412.13689     -687.32668      31288.127      33664.727      13286.247      20378.481      6204.9948      6047.1041      4686.3102      527.69448      1891.4454      7909.6496     -6888.7179     -461.17137      237092.09      61.892642      61.892642      61.892642      0.61999999    -1227.4993     -390.55371     -443.92703    
    118000   59000          414.70217     -171.75397      33144.022      33737.903      13368.945      20368.958      6176.2755      5988.0282      4739.2775      503.40276      1933.8513      7913.2848     -6885.1616     -461.17137      237092.09      61.892642      61.892642      61.892642      0.61999999     40.065154     -352.05605     -203.27102    
    119000   59500          411.41089     -396.16036      32538.61       33908.432      13262.842      20645.589      6228.9575      6203.7401      4771.0279      523.40258      1899.4471      7905.401      -6886.3869     -461.17137      237092.09      61.892642      61.892642      61.892642      0.61999999    -604.64388     -585.29692      1.4597269    
    120000   60000          415.24863      267.63652      34821.632      33896.213      13386.561      20509.652      6134.2519      6037.3895      4767.5058      505.90103      2025.2671      7920.8783     -6881.5422     -461.17137      237092.09      61.892642      61.892642      61.892642      0.61999999     784.46022     -334.37013      352.81948    
    121000   60500          420.44911     -150.10034      33529.061      34048.07       13554.212      20493.858      6240.1988      6079.1198      4762.0696      528.9526       1849.0792      7921.5962     -6887.1584     -461.17137      237092.09      61.892642      61.892642      61.892642      0.61999999    -48.961826     -606.18534      204.84615    
    122000   61000          418.01617     -468.51098      32464.561      34084.552      13475.78       20608.772      6176.954       6170.7089      4751.4907      536.79363      1940.6561      7918.3659     -6886.1971     -461.17137      237092.09      61.892642      61.892642      61.892642      0.61999999    -788.85416     -461.59138     -155.08739    
    123000   61500          414.71937     -129.5266       33539.502      33987.372      13369.499      20617.872      6305.9837      6002.4254      4889.7935      516.3332       1881.3074      7910.8578     -6888.8287     -461.17137      237092.09      61.892642      61.892642      61.892642      0.61999999    -511.09066      100.91552      21.595344    
    124000   62000          416.05232     -373.48078      32821.036      34112.437      13412.47       20699.967      6286.2248      6123.0522      4843.8646      508.17883      1892.0794      7931.5391     -6884.9723     -461.17137      237092.09      61.892642      61.892642      61.892642      0.61999999    -1212.3408      258.7661      -166.86761    
    125000   62500          424.25178     -92.767124      34064.688      34385.453      13676.8        20708.653      6380.3544      6116.5201      4710.0906      526.6531       1932.6859      7928.2589     -6885.9097     -461.17137      237092.09      61.892642      61.892642      61.892642      0.61999999    -71.261633     -516.22437      309.18463    
    126000   63000          420.63219     -485.35796      32432.744      34110.988      13560.114      20550.874      6254.003       6120.3662      4716.9057      529.46196      1897.2134      7923.9765     -6891.0526     -461.17137      237092.09      61.892642      61.892642      61.892642      0.61999999    -516.91655     -1071.2515      132.09417    
    127000   63500          418.40153     -263.72563      33161.767      34073.663      13488.203      20585.46       6278.1788      6153.3493      4706.4751      509.02503      1907.16        7923.082      -6891.8104     -461.17137      237092.09      61.892642      61.892642      61.892642      0.61999999     171.30985     -379.94893     -582.53781    
    128000   64000          428.50633     -832.99058      31512.275      34392.544      13813.956      20578.588      6154.5059      6248.3346      4778.2878      508.35489      1860.485       7917.7495     -6889.1293     -461.17137      237092.09      61.892642      61.892642      61.892642      0.61999999    -854.61783     -955.67227     -688.68163    
    129000   64500          422.85704     -698.53321      31767.462      34182.811      13631.837      20550.974      6327.7066      6137.9761      4723.531       522.45809      1803.6225      7926.0288     -6890.3492     -461.17137      237092.09      61.892642      61.892642      61.892642      0.61999999    -1073.6126     -499.35796     -522.62906    
    130000   65000          427.80656     -218.38179      33664.213      34419.322      13791.397      20627.924      6228.9096      6127.2918      4836.1763      511.72328      1887.4682      7924.3835     -6888.0283     -461.17137      237092.09      61.892642      61.892642      61.892642      0.61999999    -328.94895      167.52967     -493.72609    
    131000   65500          430.08128     -696.60574      32242.47       34651.155      13864.728      20786.426      6340.5639      6221.826       4791.4324      522.12979      1884.0059      7918.4588     -6891.9904     -461.17137      237092.09      61.892642      61.892642      61.892642      0.61999999    -389.32821     -1134.3498     -566.13917    
    132000   66000          432.12836     -668.41965      32427.613      34738.838      13930.721      20808.117      6288.581       6280.6635      4808.8898      512.90884      1901.9426      7906.6653     -6891.5342     -461.17137      237092.09      61.892642      61.892642      61.892642      0.61999999    -874.13242     -952.48152     -178.645      
    133000   66500          427.32785     -1476.8928      29683.347      34790.065      13775.965      21014.1        6490.0357      6247.748       4974.6121      531.44324      1743.474       7912.6941     -6885.9067     -461.17137      237092.09      61.892642      61.892642      61.892642      0.61999999    -2245.7002     -633.41655     -1551.5616    
    134000   67000          431.12468     -521.03945      33027.444      34829.066      13898.365      20930.701      6351.9067      6251.2429      4849.7348      542.12606      1914.5508      7910.8758     -6889.7364     -461.17137      237092.09      61.892642      61.892642      61.892642      0.61999999     155.16387     -1193.062      -525.22018    
    135000   67500          424.08743     -688.5941       32140.911      34521.894      13671.502      20850.392      6437.2449      6245.0406      4772.8108      541.01732      1801.4983      7939.2511     -6886.4711     -461.17137      237092.09      61.892642      61.892642      61.892642      0.61999999    -533.55008     -1156.0169     -376.21536    
    136000   68000          428.8426      -644.26232      32465.744      34693.439      13824.796      20868.642      6361.7177      6255.3846      4793.4486      523.37922      1884.4551      7933.7539     -6883.4971     -461.17137      237092.09      61.892642      61.892642      61.892642      0.61999999    -1092.5368     -635.94805     -204.30213    
    137000   68500          438.04984     -681.62856      32796.608      35153.506      14121.615      21031.892      6467.5421      6326.7474      4837.3965      510.07335      1865.5704      7912.7311     -6888.1694     -461.17137      237092.09      61.892642      61.892642      61.892642      0.61999999    -988.18917     -1275.1879      218.49136    
    138000   69000          430.86094     -1029.6065      31339.89       34900.007      13889.863      21010.144      6431.8225      6250.1849      4865.7696      516.6851       1909.5963      7920.3309     -6884.2454     -461.17137      237092.09      61.892642      61.892642      61.892642      0.61999999    -923.28926     -926.08179     -1239.4485    
    139000   69500          432.64874     -831.65651      32038.837      34914.493      13947.497      20966.996      6372.4639      6293.6418      4840.6495      537.67065      1894.1997      7913.1943     -6884.824      -461.17137      237092.09      61.892642      61.892642      61.892642      0.61999999    -541.37608     -1070.1379     -883.45554    
    140000   70000          428.97035     -1034.4533      31306.999      34883.875      13828.915      21054.96       6439.1139      6304.1263      4860.8782      521.53422      1894.3703      7921.9623     -6887.0251     -461.17137      237092.09      61.892642      61.892642      61.892642      0.61999999    -1033.2762     -997.08483     -1072.9989    
    141000   70500          434.39602     -416.7577       33537.366      34978.408      14003.825      20974.584      6436.4267      6279.0038      4787.5981      532.8714       1887.2678      7932.8454     -6881.4296     -461.17137      237092.09      61.892642      61.892642      61.892642      0.61999999    -879.94778     -360.61276     -9.7125543    
    142000   71000          437.12962     -314.10579      34152.329      35238.427      14091.949      21146.478      6427.074       6411.9919      4837.3774      555.21611      1895.235       7905.1738     -6885.5904     -461.17137      237092.09      61.892642      61.892642      61.892642      0.61999999    -574.91688     -62.417002     -304.98348    
    143000   71500          444.64779     -725.58155      32919.351      35428.227      14334.316      21093.912      6442.4958      6315.632       4905.922       525.9304       1869.4175      7926.353      -6891.8387     -461.17137      237092.09      61.892642      61.892642      61.892642      0.61999999    -1235.6068     -361.86929     -579.26855    
    144000   72000          430.72156     -628.47026      33136.326      35309.416      13885.369      21424.047      6498.7041      6402.3935      5020.2912      552.27918      1899.2327      7942.409      -6891.2626     -461.17137      237092.09      61.892642      61.892642      61.892642      0.61999999    -458.52825     -722.70443     -704.17809    
    145000   72500          442.92597     -653.59379      33390.349      35650.31       14278.809      21371.502      6542.3352      6379.2953      5005.1933      538.02643      1872.9617      7917.8733     -6884.1837     -461.17137      237092.09      61.892642      61.892642      61.892642      0.61999999    -1310.001      -103.14285     -547.63757    
    146000   73000          441.0118      -259.88947      34558.38       35457.011      14217.101      21239.911      6503.3864      6364.1699      4932.103       537.06556      1885.9609      7903.0048     -6885.7798     -461.17137      237092.09      61.892642      61.892642      61.892642      0.61999999    -686.50947     -328.43938      235.28045    
    147000   73500          431.79351     -301.76039      34069.035      35112.445      13919.926      21192.519      6485.6583      6325.677       4835.7973      561.99089      1946.4252      7921.153      -6884.1828     -461.17137      237092.09      61.892642      61.892642      61.892642      0.61999999     469.73883     -25.863327     -1349.1567    
    148000   74000          439.94631     -1440.5927      30558.021      35539.223      14182.752      21356.471      6408.8706      6308.6885      5143.0374      545.2259       1920.4765      7921.0416     -6890.8692     -461.17137      237092.09      61.892642      61.892642      61.892642      0.61999999    -1957.468      -1030.3107     -1333.9994    
    149000   74500          439.856       -304.00174      34357.795      35408.956      14179.841      21229.115      6532.4445      6360.0002      4863.1801      556.56072      1884.7099      7922.4926     -6890.2729     -461.17137      237092.09      61.892642      61.892642      61.892642      0.61999999    -389.40052      89.141475     -611.74617    
    150000   75000          447.40499     -298.06384      34728.96       35759.589      14423.201      21336.388      6531.8354      6373.8961      4926.961       562.92027      1921.6097      7909.4924     -6890.3267     -461.17137      237092.09      61.892642      61.892642      61.892642      0.61999999    -478.96462      777.06552     -1192.2924    
    151000   75500          442.32179      147.0061       36067.761      35559.452      14259.331      21300.12       6593.1962      6407.1374      4842.3005      550.46546      1871.7482      7925.4865     -6890.2138     -461.17137      237092.09      61.892642      61.892642      61.892642      0.61999999     291.14612     -104.39545      254.26764    
    152000   76000          442.21342     -1042.3044      32181.158      35785.181      14255.838      21529.343      6644.2004      6322.5918      5079.2344      543.36224      1934.3202      7897.1727     -6891.5388     -461.17137      237092.09      61.892642      61.892642      61.892642      0.61999999    -2026.9942     -324.69201     -775.22695    
    153000   76500          449.08682     -898.51627      32728.54       35835.38       14477.419      21357.962      6412.1549      6443.3659      5049.8592      565.35568      1869.4632      7907.2492     -6889.4863     -461.17137      237092.09      61.892642      61.892642      61.892642      0.61999999    -664.90921     -1571.5729     -459.06668    
    154000   77000          449.3326       160.38109      36515.813      35961.256      14485.342      21475.913      6585.2382      6371.8496      4954.3697      538.48595      1989.1012      7923.1931     -6886.3242     -461.17137      237092.09      61.892642      61.892642      61.892642      0.61999999     149.49406     -57.822578      389.47179    
    155000   77500          446.9488      -590.95938      34022.426      36065.813      14408.494      21657.318      6564.1146      6595.9401      5018.1208      556.61874      1883.9581      7922.8149     -6884.2489     -461.17137      237092.09      61.892642      61.892642      61.892642      0.61999999    -484.23902     -409.22064     -879.41849    
    156000   78000          449.48654     -801.26314      33089.525      35860.089      14490.305      21369.784      6526.4222      6346.4774      5027.3129      550.7957       1887.1124      7916.8622     -6885.1984     -461.17137      237092.09      61.892642      61.892642      61.892642      0.61999999    -959.20556     -878.35809     -566.22578    
[...]
    455000   227500         732.63079     -535.17547      53348.809      55199.31       23618.156      31581.153      10096.036      9016.9201      7293.0655      916.59423      3159.0375      7967.835      -6868.3355     -461.17137      237092.09      61.892642      61.892642      61.892642      0.61999999    -599.9959       64.005286     -1069.5358    
    456000   228000         738.325       -174.89735      55235.173      55839.923      23801.723      32038.2        10241.1        9167.412       7392.3298      936.70276      3197.8118      7969.4513     -6866.6073     -461.17137      237092.09      61.892642      61.892642      61.892642      0.61999999    -1186.4091      949.32056     -287.6035     
    457000   228500         754.63377     -166.60476      55541.048      56117.124      24327.477      31789.648      10091.348      9163.0421      7331.6745      882.56841      3225.3044      7959.7386     -6864.0287     -461.17137      237092.09      61.892642      61.892642      61.892642      0.61999999     477.97234     -408.34272     -569.4439     
    458000   229000         733.60377      337.4534       56619.353      55452.525      23649.523      31803.002      10061.237      9245.1758      7338.387       860.04661      3215.3192      7948.5055     -6865.6692     -461.17137      237092.09      61.892642      61.892642      61.892642      0.61999999    -539.41203      691.45626      860.31596    
    459000   229500         746.5187       801.77886      58581.161      55808.814      24065.867      31742.947      10272.686      8918.2943      7271.8108      903.77144      3293.7775      7951.7387     -6869.1326     -461.17137      237092.09      61.892642      61.892642      61.892642      0.61999999     950.33182     -337.70314      1792.7079    
    460000   230000         754.50956      1261.4039      60704.914      56343.301      24323.472      32019.829      10229.658      9136.3275      7408.5429      924.9749       3238.4104      7949.3478     -6867.4326     -461.17137      237092.09      61.892642      61.892642      61.892642      0.61999999     1890.8411      1309.1038      584.26667    
    461000   230500         746.07832     -356.62189      54600.161      55833.268      24051.671      31781.598      9900.4951      9115.4604      7467.8711      892.57655      3306.6979      7962.8605     -6864.3636     -461.17137      237092.09      61.892642      61.892642      61.892642      0.61999999     778.00078     -1123.7389     -724.12753    
    462000   231000         732.07357     -431.48654      53877.426      55369.396      23600.193      31769.203      9951.6634      9055.6327      7507.1328      926.76639      3209.9058      7985.0614     -6866.9593     -461.17137      237092.09      61.892642      61.892642      61.892642      0.61999999    -424.15648     -93.089195     -777.21395    
    463000   231500         741.10476      566.05918      58196.305      56239.017      23891.335      32347.681      10132.199      9335.1626      7489.4147      910.69859      3388.0452      7958.2411     -6866.0802     -461.17137      237092.09      61.892642      61.892642      61.892642      0.61999999     486.20963      316.68228      895.28562    
    464000   232000         750.60591      655.3905       58268.8        56002.627      24197.629      31804.998      10028.363      9112.5064      7236.997       915.43125      3408.3011      7964.3099     -6860.9104     -461.17137      237092.09      61.892642      61.892642      61.892642      0.61999999     1087.6318      431.68021      446.85945    
    465000   232500         744.00621     -406.83218      55040.532      56447.254      23984.871      32462.383      10432.368      9364.2534      7481.4784      919.29067      3160.166       7969.1873     -6864.3614     -461.17137      237092.09      61.892642      61.892642      61.892642      0.61999999    -419.41804     -702.6791      -98.399392    
    466000   233000         743.66476      386.1906       57396.737      56061.388      23973.863      32087.525      10133.792      9265.1379      7332.8743      923.33518      3324.1337      7968.8955     -6860.6436     -461.17137      237092.09      61.892642      61.892642      61.892642      0.61999999    -77.708245      568.80582      667.47422    
    467000   233500         749.44486      669.49696      58823.76       56508.811      24160.199      32348.611      10381.573      9239.0393      7311.4276      936.90818      3369.3433      7971.4503     -6861.1301     -461.17137      237092.09      61.892642      61.892642      61.892642      0.61999999     554.84543      999.67797      453.96746    
    468000   234000         742.5991       248.05795      57040.023      56182.302      23939.509      32242.793      10277.127      9399.241       7294.735       904.65016      3247.2411      7986.3961     -6866.5978     -461.17137      237092.09      61.892642      61.892642      61.892642      0.61999999     908.40867     -431.16801      266.93318    
    469000   234500         754.87915     -376.48578      55119.214      56421.005      24335.387      32085.618      10256.609      9166.3899      7424.5623      926.53259      3194.8376      7978.5446     -6861.8572     -461.17137      237092.09      61.892642      61.892642      61.892642      0.61999999    -1426.9596     -303.71786      601.22015    
    470000   235000         757.71619      387.81927      57835.346      56494.366      24426.846      32067.52       10042.983      9206.3055      7447.5997      913.66392      3339.3447      7978.278      -6860.6549     -461.17137      237092.09      61.892642      61.892642      61.892642      0.61999999     1012.531       434.37575     -283.44896    
    471000   235500         761.70887      783.05425      59582.763      56875.162      24555.56       32319.602      10352.151      9301.6322      7326.7864      948.18752      3286.6567      7963.3357     -6859.1482     -461.17137      237092.09      61.892642      61.892642      61.892642      0.61999999     496.22252      1289.4197      563.52054    
    472000   236000         747.89193      783.46882      58967.985      56258.95       24110.137      32148.813      10376.168      9319.2751      7157.274       928.4156       3228.6976      7995.6377     -6856.6546     -461.17137      237092.09      61.892642      61.892642      61.892642      0.61999999    -295.35859      1216.0123      1429.7527    
    473000   236500         765.74129     -231.8722       56456.54       57258.295      24685.555      32572.74       10260.709      9455.4778      7540.7248      964.81733      3215.72        7990.4883     -6855.1975     -461.17137      237092.09      61.892642      61.892642      61.892642      0.61999999     254.07763     -983.73809      34.043871    
    474000   237000         760.62424     -667.0141       54398.634      56704.999      24520.594      32184.405      10053.39       9290.1637      7534.771       962.97939      3222.1256      7980.6621     -6859.6869     -461.17137      237092.09      61.892642      61.892642      61.892642      0.61999999    -12.559715     -1618.8698     -369.61281    
    475000   237500         765.40017     -1245.7789      52737.842      57045.428      24674.558      32370.87       10126.218      9358.9461      7558.4985      927.05983      3281.5936      7976.7574     -6858.2037     -461.17137      237092.09      61.892642      61.892642      61.892642      0.61999999    -1170.8586     -853.73675     -1712.7412    
    476000   238000         763.65112      238.23029      57810.574      56986.834      24618.173      32368.661      10290.05       9333.3159      7424.75        966.26687      3251.5809      7967.1271     -6864.4295     -461.17137      237092.09      61.892642      61.892642      61.892642      0.61999999     455.4817      -501.89829      761.10747    
    477000   238500         749.5754      -405.92838      55513.522      56917.119      24164.408      32752.711      10198.552      9485.8714      7721.762       951.83826      3285.1262      7967.096      -6857.5345     -461.17137      237092.09      61.892642      61.892642      61.892642      0.61999999    -1094.3995     -593.672        470.28641    
    478000   239000         754.78229     -918.61509      53373.873      56550.21       24332.264      32217.946      10161.022      9298.2569      7488.8055      925.26431      3253.6064      7950.2347     -6859.2444     -461.17137      237092.09      61.892642      61.892642      61.892642      0.61999999    -852.51404     -1121.5509     -781.78035    
    479000   239500         765.21609      319.68227      58395.408      57290.028      24668.624      32621.404      10242.936      9481.9823      7544.3793      929.6139       3324.1224      7961.9864     -6863.6162     -461.17137      237092.09      61.892642      61.892642      61.892642      0.61999999     2.6306555      825.62158      130.79457    
    480000   240000         755.00243     -69.566448      56869.92       57110.464      24339.361      32771.102      10485.164      9259.4593      7640.0869      999.43425      3303.8545      7957.8293     -6874.7254     -461.17137      237092.09      61.892642      61.892642      61.892642      0.61999999    -173.48897      252.66548     -287.87586    
    481000   240500         764.45819     -564.75098      55185.812      57138.577      24644.191      32494.386      10335.772      9323.1236      7588.4562      972.09821      3176.6921      7966.3604     -6868.1171     -461.17137      237092.09      61.892642      61.892642      61.892642      0.61999999     356.95177     -929.71202     -1121.4927    
    482000   241000         760.67464     -1267.4209      52648.106      57030.524      24522.219      32508.305      10246.079      9293.315       7657.1938      941.63939      3289.1687      7949.1127     -6868.2034     -461.17137      237092.09      61.892642      61.892642      61.892642      0.61999999    -1250.2704     -1605.0015     -946.99076    
    483000   241500         763.39239     -110.0758       57472.335      57852.949      24609.832      33243.117      10639.65       9651.2445      7682.5556      956.67859      3233.9714      7950.2375     -6871.2203     -461.17137      237092.09      61.892642      61.892642      61.892642      0.61999999     105.4645      -484.79728      49.105368    
    484000   242000         762.00952     -881.19696      54121.558      57168.512      24565.252      32603.26       10305.704      9437.3011      7595.5939      958.06545      3204.2362      7968.9507     -6866.5905     -461.17137      237092.09      61.892642      61.892642      61.892642      0.61999999     606.61147     -1637.06       -1613.1423    
    485000   242500         778.88311      408.78217      59059.831      57646.367      25109.214      32537.153      10411.663      9458.6798      7292.9479      929.53437      3339.1623      7972.9129     -6867.747      -461.17137      237092.09      61.892642      61.892642      61.892642      0.61999999    -422.76973      1396.9088      252.20744    
    486000   243000         765.34526     -227.37275      56837.922      57624.119      24672.788      32951.332      10423.807      9434.3182      7742.2289      962.21372      3289.8903      7964.8816     -6866.0082     -461.17137      237092.09      61.892642      61.892642      61.892642      0.61999999     577.93159     -1024.9467     -235.10314    
    487000   243500         777.76188     -659.96424      55434.749      57716.737      25073.068      32643.669      10466.398      9347.7178      7595.4525      915.57941      3218.9528      7966.7785     -6867.2099     -461.17137      237092.09      61.892642      61.892642      61.892642      0.61999999     1025.4076     -1567.2083     -1438.0921    
    488000   244000         771.93413     -628.61454      55658.753      57832.341      24885.196      32947.145      10505.149      9483.2955      7703.7022      946.86469      3194.1436      7976.3074     -6862.3169     -461.17137      237092.09      61.892642      61.892642      61.892642      0.61999999    -1958.823      -138.09364      211.07302    
    489000   244500         777.90936      307.6951       59097.179      58033.247      25077.822      32955.425      10679.23       9520.358       7522.8704      947.01517      3188.2391      7966.9825     -6869.2705     -461.17137      237092.09      61.892642      61.892642      61.892642      0.61999999     55.488917      356.18428      511.41212    
    490000   245000         762.8175       139.82027      57962.867      57479.404      24591.299      32888.105      10515.88       9556.4404      7497.2283      927.83685      3285.4802      7974.487      -6869.2473     -461.17137      237092.09      61.892642      61.892642      61.892642      0.61999999     772.35761      193.75106     -546.64786    
    491000   245500         768.98331     -336.82079      56341.431      57506.072      24790.069      32716.002      10484.054      9315.2709      7616.8132      964.30374      3236.2242      7969.6494     -6870.3126     -461.17137      237092.09      61.892642      61.892642      61.892642      0.61999999    -251.16783      248.78405     -1008.0786    
    492000   246000         780.51784     -1130.4881      54464.001      58372.941      25161.913      33211.028      10394.673      9672.5172      7817.0416      958.29805      3270.4815      7958.9827     -6860.9662     -461.17137      237092.09      61.892642      61.892642      61.892642      0.61999999    -651.14056     -1438.3974     -1301.9262    
    493000   246500         765.85937      198.71651      58280.521      57593.41       24689.361      32904.049      10453.297      9467.8948      7644.0088      966.56353      3259.2624      7973.2193     -6860.1975     -461.17137      237092.09      61.892642      61.892642      61.892642      0.61999999    -98.973523     -240.46962      935.59269    
    494000   247000         767.56033      277.34325      58841.143      57882.161      24744.196      33137.965      10424.418      9679.414       7638.431       957.01318      3334.0939      7966.1841     -6861.5891     -461.17137      237092.09      61.892642      61.892642      61.892642      0.61999999     899.00036      153.88402     -220.85464    
    495000   247500         776.59669     -786.53002      55514.291      58233.911      25035.505      33198.406      10665.008      9414.4112      7781.7203      946.85717      3300.6539      7955.181      -6865.4257     -461.17137      237092.09      61.892642      61.892642      61.892642      0.61999999    -1214.5062     -955.97232     -189.11151    
    496000   248000         772.47742     -449.6189       56350.765      57905.432      24902.71       33002.722      10455.351      9552.563       7607.5801      970.78471      3308.3633      7970.2732     -6862.1936     -461.17137      237092.09      61.892642      61.892642      61.892642      0.61999999    -935.23843      752.86481     -1166.4831    
    497000   248500         781.72781     -458.20242      57055.618      58639.965      25200.92       33439.045      10750.555      9510.7521      7862.5281      991.62678      3211.7907      7974.3209     -6862.5282     -461.17137      237092.09      61.892642      61.892642      61.892642      0.61999999    -815.34721      24.504702     -583.76474    
    498000   249000         774.88785     -358.55464      57140.398      58380.189      24980.417      33399.772      10746.946      9761.8131      7572.6218      994.90942      3218.2886      7966.0483     -6860.8548     -461.17137      237092.09      61.892642      61.892642      61.892642      0.61999999     111.26799     -1098.2015     -88.730391    
    499000   249500         781.91611     -599.09989      56284.185      58355.72       25206.99       33148.73       10515.713      9460.537       7777.1588      964.75115      3317.2985      7975.3349     -6862.064      -461.17137      237092.09      61.892642      61.892642      61.892642      0.61999999    -585.49277      386.03888     -1597.8458    
    500000   250000         777.04256     -1120.2329      54348.538      58222.017      25049.879      33172.138      10453.446      9526.4613      7727.0349      1000.454       3370.1391      7952.9214     -6858.318      -461.17137      237092.09      61.892642      61.892642      61.892642      0.61999999    -583.13069     -1068.1906     -1709.3774    
Loop time of 1777.8 on 1 procs for 500000 steps with 10816 atoms

Performance: 12.150 ns/day, 1.975 hours/ns, 281.247 timesteps/s, 3.042 Matom-step/s
99.9% CPU use with 1 MPI tasks x 1 OpenMP threads

MPI task timing breakdown:
Section |  min time  |  avg time  |  max time  |%varavg| %total
---------------------------------------------------------------
Pair    | 10.529     | 10.529     | 10.529     |   0.0 |  0.59
Bond    | 1012       | 1012       | 1012       |   0.0 | 56.92
Kspace  | 545.2      | 545.2      | 545.2      |   0.0 | 30.67
Neigh   | 86.078     | 86.078     | 86.078     |   0.0 |  4.84
Comm    | 14.839     | 14.839     | 14.839     |   0.0 |  0.83
Output  | 12.189     | 12.189     | 12.189     |   0.0 |  0.69
Modify  | 79.092     | 79.092     | 79.092     |   0.0 |  4.45
Other   |            | 17.89      |            |       |  1.01

Nlocal:          10816 ave       10816 max       10816 min
Histogram: 1 0 0 0 0 0 0 0 0 0
Nghost:          13800 ave       13800 max       13800 min
Histogram: 1 0 0 0 0 0 0 0 0 0
Neighs:              0 ave           0 max           0 min
Histogram: 1 0 0 0 0 0 0 0 0 0
FullNghs:  3.83793e+06 ave 3.83793e+06 max 3.83793e+06 min
Histogram: 1 0 0 0 0 0 0 0 0 0

Total # of neighbors = 3837928
Ave neighs/atom = 354.83802
Ave special neighs/atom = 5.7707101
Neighbor list builds = 15140
Dangerous builds = 0

# --- Cleanup ---
unfix nvt_fix

undump dump_nvt

# --- Write Output ---
write_dump all custom nvt_softheat_last.dump id type mol x y z xu yu zu vx vy vz modify sort id
write_data /home/arz2/PolyJarvis/data/PSU4/lammps/equil/nvt_softheat/nvt_softheat_out.data
System init for write_data ...
PPPM Kokkos initialization ...
  using 12-bit tables for long-range coulomb
  G vector (1/distance) = 0.2922111
  grid = 40 40 40
  stencil order = 5
  estimated absolute RMS force accuracy = 0.00034540139
  estimated relative force accuracy = 1.040166e-06
  using double precision cuFFT
  3d grid and FFT values/proc = 103823 64000
Generated 28 of 28 mixed pair_coeff terms from sixthpower/sixthpower mixing rule

print "STAGE COMPLETE: NVT T=300.0->780.0K steps=500000"
STAGE COMPLETE: NVT T=300.0->780.0K steps=500000
quit
| 17.89      |            |       |  1.01

Nlocal:          10816 ave       10816 max       10816 min
Histogram: 1 0 0 0 0 0 0 0 0 0
Nghost:          13800 ave       13800 max       13800 min
Histogram: 1 0 0 0 0 0 0 0 0 0
Neighs:              0 ave           0 max           0 min
Histogram: 1 0 0 0 0 0 0 0 0 0
FullNghs:  3.83793e+06 ave 3.83793e+06 max 3.83793e+06 min
Histogram: 1 0 0 0 0 0 0 0 0 0

Total # of neighbors = 3837928
Ave neighs/atom = 354.83802
Ave special neighs/atom = 5.7707101
Neighbor list builds = 15140
Dangerous builds = 0
System init for write_data ...
PPPM Kokkos initialization ...
  using 12-bit tables for long-range coulomb
  G vector (1/distance) = 0.2922111
  grid = 40 40 40
  stencil order = 5
  estimated absolute RMS force accuracy = 0.00034540139
  estimated relative force accuracy = 1.040166e-06
  using double precision cuFFT
  3d grid and FFT values/proc = 103823 64000
Generated 28 of 28 mixed pair_coeff terms from sixthpower/sixthpower mixing rule
STAGE COMPLETE: NVT T=300.0->780.0K steps=500000
