units real
atom_style full
boundary p p p

# --- Force Field Styles ---
pair_style lj/cut 14.0
dielectric 1.000000
bond_style harmonic
angle_style harmonic
dihedral_style multi/harmonic
improper_style none
special_bonds lj 0 0 0
pair_modify mix arithmetic tail yes
neighbor 2.0 bin
neigh_modify delay 0 every 1 check yes
neigh_modify one 4000
package gpu 1 neigh yes

read_data /home/arz2/PolyJarvis/data/cis-PBD2/lammps/equil/npt_production/npt_production_out.data
Reading data file ...
  orthogonal box = (4.7926216 4.7926216 4.7926216) to (63.385756 63.385756 63.385756)
  1 by 1 by 1 MPI processor grid
  reading atoms ...
  8040 atoms
  reading velocities ...
  8040 velocities
  scanning bonds ...
  2 = max bonds/atom
  scanning angles ...
  1 = max angles/atom
  scanning dihedrals ...
  2 = max dihedrals/atom
  orthogonal box = (4.7926216 4.7926216 4.7926216) to (63.385756 63.385756 63.385756)
  1 by 1 by 1 MPI processor grid
  reading bonds ...
  8020 bonds
  reading angles ...
  8000 angles
  reading dihedrals ...
  7980 dihedrals
Finding 1-2 1-3 1-4 neighbors ...
  special bond factors lj:    0        0        0       
  special bond factors coul:  0        0        0       
     2 = max # of 1-2 neighbors
     2 = max # of 1-3 neighbors
     4 = max # of 1-4 neighbors
     6 = max # of special neighbors
  special bonds CPU = 0.002 seconds
  read_data CPU = 0.104 seconds


# --- Thermo Output ---
thermo_style custom step time temp press enthalpy etotal ke pe ebond eangle edihed eimp evdwl ecoul elong etail vol lx ly lz density pxx pyy pzz
thermo_modify flush yes
thermo 100

# --- Trajectory ---
dump dump_npt all custom 1000 /home/arz2/PolyJarvis/data/cis-PBD2/lammps/mechanical/bm_series/bm_P1000/bm_P1000.dump id type mol x y z ix iy iz vx vy vz

# --- Restart Checkpointing ---
restart 10000 npt_1.rst npt_2.rst

# --- Initial Velocities (optional) ---
# Velocities read from data file

# --- SHAKE Constraints ---
# SHAKE disabled (TraPPE-UA united-atom)

# --- NPT Thermostat + Barostat (Nose-Hoover) ---
# T_damp = 100.0 fs  (heat bath coupling)
# P_damp = 1000.0 fs  (pressure bath coupling, ~10x T_damp typical)
# Ramp: T=300.0->300.0K  P=1000.0->1000.0atm
timestep 2.0
fix npt_fix all npt temp 300.0 300.0 100.0 iso 1000.0 1000.0 1000.0

run 500000

CITE-CITE-CITE-CITE-CITE-CITE-CITE-CITE-CITE-CITE-CITE-CITE-CITE

Your simulation uses code contributions which should be cited:

- GPU package (short-range, long-range and three-body potentials): doi:10.1016/j.cpc.2010.12.021, doi:10.1016/j.cpc.2011.10.012, doi:10.1016/j.cpc.2013.08.002, doi:10.1016/j.commatsci.2014.10.068, doi:10.1016/j.cpc.2016.10.020, doi:10.3233/APC200086

@Article{Brown11,
 author = {W. M. Brown and P. Wang and S. J. Plimpton and A. N. Tharrington},
 title = {Implementing Molecular Dynamics on Hybrid High Performance Computers---Short Range Forces},
 journal = {Comput.\ Phys.\ Commun.},
 year =    2011,
 volume =  182,
 pages =   {898--911},
 doi =     {10.1016/j.cpc.2010.12.021}
}

@Article{Brown12,
 author = {W. M. Brown and A. Kohlmeyer and S. J. Plimpton and A. N. Tharrington},
 title = {Implementing Molecular Dynamics on Hybrid High Performance Computers - Particle-Particle Particle-Mesh},
 journal = {Comput.\ Phys.\ Commun.},
 year =    2012,
 volume =  183,
 doi =     {10.1016/j.cpc.2011.10.012},
 pages =   {449--459}
}

@Article{Brown13,
 author = {W. M. Brown and Y. Masako},
 title = {Implementing Molecular Dynamics on Hybrid High Performance Computers---Three-Body Potentials},
 journal = {Comput.\ Phys.\ Commun.},
 year =    2013,
 volume =  184,
 pages =   {2785--2793},
 doi =     {10.1016/j.cpc.2013.08.002},
}

@Article{Trung15,
 author = {T. D. Nguyen and S. J. Plimpton},
 title = {Accelerating Dissipative Particle Dynamics Simulations for Soft Matter Systems},
 journal = {Comput.\ Mater.\ Sci.},
 year =    2015,
 doi =     {10.1016/j.commatsci.2014.10.068},
 volume =  100,
 pages =   {173--180}
}

@Article{Trung17,
 author = {T. D. Nguyen},
 title = {{GPU}-Accelerated {T}ersoff Potentials for Massively Parallel
    Molecular Dynamics Simulations},
 journal = {Comput.\ Phys.\ Commun.},
 year =    2017,
 doi =     {10.1016/j.cpc.2016.10.020},
 volume =  212,
 pages =   {113--122}
}

@inproceedings{Nikolskiy19,
 author = {V. Nikolskiy and V. Stegailov},
 title = {{GPU} Acceleration of Four-Site Water Models in {LAMMPS}},
 booktitle = {Proceedings of the International Conference on Parallel
    Computing (ParCo 2019), Prague, Czech Republic},
 doi =     {10.3233/APC200086},
 year =    2019
}

CITE-CITE-CITE-CITE-CITE-CITE-CITE-CITE-CITE-CITE-CITE-CITE-CITE

Generated 3 of 3 mixed pair_coeff terms from arithmetic mixing rule
Per MPI rank memory allocation (min/avg/max) = 15.71 | 15.71 | 15.71 Mbytes
   Step          Time           Temp          Press         Enthalpy        TotEng         KinEng         PotEng         E_bond        E_angle        E_dihed        E_impro         E_vdwl         E_coul         E_long         E_tail         Volume           Lx             Ly             Lz          Density          Pxx            Pyy            Pzz      
         0   0              299.0575       129.56684      12056.822      11676.711      7166.2348      4510.4767      2407.1781      2431.8046      8760.8771      0             -9089.3832      0              0             -288.94853      201159.33      58.593134      58.593134      58.593134      0.8979965      106.69678      217.05976      64.943975    
       100   200            300.51016      1006.7956      14721.323      11825.417      7201.0444      4624.3727      2491.3485      2402.9769      8822.1745      0             -9092.1273      0              0             -294.70904      197227.39      58.208858      58.208858      58.208858      0.91589904     1015.9722      1085.2832      919.1315     
       200   400            303.16436      1116.2843      14792.34       11620.697      7264.6463      4356.0503      2387.3089      2391.6669      8797.6996      0             -9220.6251      0              0             -298.35066      194820.06      57.971058      57.971058      57.971058      0.92721651     1106.2319      1176.3775      1066.2434    
       300   600            302.12676      1065.4692      14442.382      11424.087      7239.7827      4184.3045      2388.2192      2290.3997      8819.7628      0             -9314.0773      0              0             -299.23738      194242.76      57.91374       57.91374       57.91374       0.92997226     446.29643      1397.8513      1352.2599    
       400   800            299.31017      1122.1258      14609.001      11438.232      7172.2895      4265.9428      2393.7229      2351.0702      8840.3051      0             -9319.1555      0              0             -299.99466      193752.43      57.864969      57.864969      57.864969      0.93232573     798.54796      1011.5201      1556.3095    
       500   1000           302.20075      728.57561      13610.398      11552.913      7241.5555      4311.3574      2445.2849      2379.3865      8847.8329      0             -9361.147       0              0             -300.17494      193636.06      57.853382      57.853382      57.853382      0.93288602     690.63582      892.48954      602.60147    
       600   1200           295.39722      994.0616       14231.479      11430.365      7078.5244      4351.8411      2381.8745      2474.0284      8867.2543      0             -9371.3161      0              0             -300.82859      193215.33      57.81145       57.81145       57.81145       0.93491742     1403.2674      519.24974      1059.6677    
       700   1400           302.83022      1403.6593      15451.449      11505.544      7256.6395      4248.9045      2425.2739      2394.6578      8836.3582      0             -9407.3855      0              0             -301.54466      192756.5       57.765652      57.765652      57.765652      0.93714284     1248.565       1565.6047      1396.8083    
       800   1600           295.8342       1260.9222      14814.236      11250.348      7088.9956      4161.3522      2356.72        2352.949       8818.6937      0             -9367.0105      0              0             -299.9168       193802.73      57.869975      57.869975      57.869975      0.93208376     1459.1669      1226.7072      1096.8927    
       900   1800           298.52964      1019.818       14339.079      11455.427      7153.5859      4301.8411      2381.0684      2401.1711      8861.0104      0             -9341.4088      0              0             -299.78944      193885.07      57.878169      57.878169      57.878169      0.93168794     833.73915      884.83582      1340.8791    
      1000   2000           299.32022      1071.1631      14577.665      11546.152      7172.5301      4373.6219      2429.2681      2442.1651      8834.3939      0             -9332.2053      0              0             -299.52475      194056.4       57.895213      57.895213      57.895213      0.93086535     1143.1947      914.92255      1155.3721    
      1100   2200           297.19         1022.8363      14315.074      11420.123      7121.4844      4298.6385      2420.6982      2398.816       8806.8631      0             -9327.7388      0              0             -299.50323      194070.34      57.8966        57.8966        57.8966        0.93079847     1377.9424      715.95577      974.61058    
      1200   2400           294.70211      1327.9462      15049.258      11302.411      7061.8677      4240.5434      2403.0422      2395.7536      8822.9326      0             -9381.185       0              0             -300.43538      193468.21      57.83666       57.83666       57.83666       0.9336954      1511.1057      794.33876      1678.394     
      1300   2600           304.71415      1209.6063      14902.451      11492.306      7301.7835      4190.5225      2355.5092      2384.4897      8783.7557      0             -9333.2321      0              0             -300.6822       193309.4       57.82083       57.82083       57.82083       0.93446247     762.7444       1188.2917      1677.7828    
      1400   2800           295.96823      1042.2907      14327.506      11384.853      7092.2073      4292.6457      2371.663       2440.6079      8836.5636      0             -9356.1888      0              0             -300.25229      193586.18      57.848414      57.848414      57.848414      0.93312639     1506.9566      319.03378      1300.8816    
      1500   3000           302.90752      901.9894       14145.031      11594.415      7258.4918      4335.9232      2493.7921      2403.9295      8855.8195      0             -9417.6179      0              0             -299.77324      193895.54      57.879212      57.879212      57.879212      0.9316376      703.47674      1147.1427      855.3488     
      1600   3200           300.99307      946.8591       14153.673      11481.506      7212.6163      4268.8895      2423.8029      2395.1558      8819.9085      0             -9369.9777      0              0             -300.37118      193509.56      57.84078       57.84078       57.84078       0.93349589     663.91289      1211.6673      964.9971     
      1700   3400           295.08331      404.24635      12471.074      11331.925      7071.0023      4260.9227      2438.083       2415.3779      8765.354       0             -9357.8923      0              0             -300.81695      193222.8       57.812195      57.812195      57.812195      0.93488125     547.57752      440.10555      225.05599    
      1800   3600           300.71404      1136.0243      14712.37       11507.324      7205.93        4301.394       2505.728       2378.9031      8801.3591      0             -9384.5962      0              0             -300.46228      193450.89      57.834934      57.834934      57.834934      0.93377901     473.59135      1571.4041      1363.0775    
      1900   3800           300.5838       414.39171      12630.493      11460.121      7202.809       4257.3115      2479.7959      2350.7088      8846.3027      0             -9419.4959      0              0             -300.13987      193658.69      57.855635      57.855635      57.855635      0.93277702     211.1948       647.99484      383.98551    
      2000   4000           299.52938      1095.2395      14458.888      11383.395      7177.5422      4205.8531      2399.8087      2430.0095      8828.251       0             -9452.2162      0              0             -301.8777       192543.85      57.744402      57.744402      57.744402      0.93817785     738.19749      1442.2656      1105.2554    
      2100   4200           297.56837      1150.4687      14534.284      11316.511      7130.5512      4185.9598      2451.0118      2390.9976      8817.1159      0             -9473.1655      0              0             -303.0791       191780.61      57.668001      57.668001      57.668001      0.94191158     1239.8406      1104.5973      1106.9682    
      2200   4400           295.85589      588.40536      12879.517      11231.421      7089.5153      4141.9058      2394.7273      2392.5036      8791.6942      0             -9437.0193      0              0             -302.64309      192056.91      57.695682      57.695682      57.695682      0.94055654     519.85997      818.00989      427.34623    
      2300   4600           303.77031      1311.0227      15078.6        11395.315      7279.1664      4116.1486      2359.9221      2448.1287      8778.8399      0             -9470.7421      0              0             -301.72514      192641.21      57.754132      57.754132      57.754132      0.93770373     983.45329      1122.3138      1827.3012    
      2400   4800           299.09033      882.22326      13778.906      11299.77       7167.0214      4132.7484      2346.1253      2399.0661      8838.7979      0             -9451.2408      0              0             -301.65785      192684.18      57.758426      57.758426      57.758426      0.93749462     851.45779      724.06169      1071.1503    
      2500   5000           297.94214      1284.4277      14859.244      11262.921      7139.5077      4123.413       2452.297       2380.4371      8736.6836      0             -9446.0047      0              0             -302.75238      191987.57      57.688738      57.688738      57.688738      0.94089621     1293.8131      975.52667      1583.9434    
      2600   5200           299.4048       736.34834      13474.346      11400.599      7174.5571      4226.0415      2489.673       2449.1567      8722.4502      0             -9435.2384      0              0             -300.99825      193106.42      57.800586      57.800586      57.800586      0.9354447      678.21993      974.22618      556.5989     
      2700   5400           300.3515       867.09803      13736.779      11291.435      7197.2425      4094.1923      2355.3735      2440.6399      8730.6028      0             -9432.424       0              0             -300.58331      193373         57.82717       57.82717       57.82717       0.93415514     1077.9711      658.58292      864.74005    
      2800   5600           304.12958      706.50605      13503.032      11513.485      7287.7757      4225.7095      2410.4353      2437.1431      8777.5735      0             -9399.4424      0              0             -301.02204      193091.16      57.799063      57.799063      57.799063      0.93551863     1149.1958      839.25768      131.0647     
      2900   5800           299.44061      598.51129      13089.481      11407.165      7175.4152      4231.7495      2432.0791      2417.8         8796.1067      0             -9414.2364      0              0             -301.57915      192734.46      57.76345       57.76345       57.76345       0.93725003     767.15835      852.8707       175.50483    
      3000   6000           304.85886      928.55899      13911.708      11305.564      7305.2511      4000.3125      2338.1958      2351.1027      8769.5559      0             -9458.5419      0              0             -302.02824      192447.88      57.734806      57.734806      57.734806      0.9386457      723.51156      1117.7722      944.3932     
      3100   6200           306.5038       1095.5595      14448.084      11369.082      7344.6685      4024.4136      2383.3731      2299.5698      8792.1094      0             -9450.6387      0              0             -301.6217       192707.27      57.760734      57.760734      57.760734      0.93738226     940.99204      981.91002      1363.7765    
      3200   6400           301.74829      1197.3522      14807.964      11441.535      7230.7134      4210.8221      2437.3775      2345.3628      8870.0187      0             -9441.937       0              0             -301.5012       192784.29      57.768428      57.768428      57.768428      0.93700776     738.63648      997.74224      1855.6779    
      3300   6600           299.85382      847.82473      13690.016      11306.124      7185.3166      4120.8071      2309.3215      2451.8564      8814.7838      0             -9455.1546      0              0             -301.47833      192798.91      57.769888      57.769888      57.769888      0.9369367      474.42083      941.44853      1127.6048    
      3400   6800           303.22403      1234.7961      14910.93       11444.27       7266.0761      4178.1944      2422.2395      2354.4742      8870.8481      0             -9469.3674      0              0             -301.93997      192504.14      57.740431      57.740431      57.740431      0.9383714      1266.9287      1391.6676      1045.7921    
      3500   7000           301.09426      888.00919      13880.461      11381.482      7215.041       4166.4408      2405.4691      2354.6283      8815.0858      0             -9408.7424      0              0             -301.22529      192960.87      57.78606       57.78606       57.78606       0.93615031     1196.1422      919.90642      547.97898    
      3600   7200           298.4683       1033.4798      14292.736      11377.568      7152.1158      4225.452       2406.2619      2454.0204      8779.0163      0             -9413.8465      0              0             -300.52113      193413.01      57.831159      57.831159      57.831159      0.93396189     912.59006      667.92901      1519.9202    
      3700   7400           306.23756      1085.0722      14711.93       11659.033      7338.2885      4320.7448      2451.3823      2458.0103      8784.3811      0             -9373.0289      0              0             -301.28884      192920.17      57.781997      57.781997      57.781997      0.9363478      1219.0145      558.19928      1478.0028    
      3800   7600           302.06906      1152.4876      14678.979      11442.981      7238.4         4204.5811      2422.6404      2432.4585      8779.0949      0             -9429.6127      0              0             -301.90106      192528.95      57.742912      57.742912      57.742912      0.93825047     1688.3953      535.57247      1233.495     
      3900   7800           298.32898      1153.6294      14536.951      11301.704      7148.7773      4152.9265      2388.8617      2420.8441      8806.7695      0             -9463.5488      0              0             -302.27027      192293.79      57.719393      57.719393      57.719393      0.93939788     1259.416       596.40718      1605.0649    
      4000   8000           304.06774      1159.6258      14678.148      11421.954      7286.2939      4135.6605      2355.8096      2429.0839      8797.7628      0             -9446.9959      0              0             -301.88687      192538         57.743817      57.743817      57.743817      0.93820637     984.96529      1016.2001      1477.712     
      4100   8200           299.00242      1211.1471      14861.8        11457.747      7164.9148      4292.8317      2447.3298      2437.9566      8803.625       0             -9396.0797      0              0             -301.60401      192718.58      57.761863      57.761863      57.761863      0.93732728     1126.5931      1209.076       1297.7721    
      4200   8400           296.76778      1062.9095      14205.817      11214.219      7111.3667      4102.8523      2374.8641      2436.8479      8754.677       0             -9463.5368      0              0             -301.18241      192988.35      57.788802      57.788802      57.788802      0.93601703     1295.9979      587.92238      1304.8082    
      4300   8600           302.47974      1048.437       14352.711      11407.901      7248.2409      4159.6606      2390.7342      2466.2196      8744.7337      0             -9442.0269      0              0             -301.80174      192592.31      57.749246      57.749246      57.749246      0.93794178     898.22398      1275.4538      971.63335    
      4400   8800           299.84487      1365.5219      15167.168      11339.377      7185.1023      4154.2745      2369.3359      2410.7921      8829.2387      0             -9455.0922      0              0             -302.40362      192208.99      57.710907      57.710907      57.710907      0.93981232     879.56524      1306.5962      1910.4044    
      4500   9000           297.98827      1278.6822      14889.48       11303.486      7140.6131      4162.8727      2356.2601      2430.4627      8765.0212      0             -9388.8713      0              0             -302.26626      192296.33      57.719647      57.719647      57.719647      0.93938545     1416.1835      1280.3514      1139.5118    
      4600   9200           303.27538      1253.8384      14942.026      11410.655      7267.3067      4143.3482      2470.8345      2360.6112      8749.596       0             -9437.6935      0              0             -300.97807      193119.37      57.801877      57.801877      57.801877      0.93538199     1441.6714      1309.1287      1010.7152    
      4700   9400           298.4204       631.26355      12999.971      11220.019      7150.9681      4069.0509      2346.6901      2377.4603      8765.3481      0             -9420.4475      0              0             -300.63464      193339.98      57.823879      57.823879      57.823879      0.93431466     185.7219       961.01133      747.05743    
      4800   9600           301.46349      1256.0636      14947.569      11429.328      7223.8889      4205.439       2408.0498      2429.5495      8805.7917      0             -9437.952       0              0             -302.63742      192060.5       57.696042      57.696042      57.696042      0.94053892     1255.0181      1314.8856      1198.2872    
      4900   9800           305.94458      1148.846       14650.984      11423.399      7331.268       4092.1307      2380.9744      2397.7662      8766.162       0             -9452.7719      0              0             -301.73153      192637.13      57.753725      57.753725      57.753725      0.93772359     794.1803       1150.4194      1501.9383    
      5000   10000          300.49586      828.57544      13599.731      11268.082      7200.7017      4067.3806      2363.3548      2426.6603      8746.7314      0             -9469.366       0              0             -301.2351       192954.59      57.785432      57.785432      57.785432      0.9361808      1019.9763      475.96929      989.78078    
      5100   10200          302.90175      1149.5872      14707.461      11480.544      7258.3534      4222.1904      2432.152       2475.1005      8771.585       0             -9456.6471      0              0             -301.98873      192473.06      57.737324      57.737324      57.737324      0.93852291     671.75416      1429.4069      1347.6006    
      5200   10400          298.87245      883.27843      13840.753      11362.751      7161.8004      4200.9504      2395.017       2449.5552      8806.7977      0             -9450.4195      0              0             -302.15686      192365.96      57.726613      57.726613      57.726613      0.93904543     565.88266      1113.9486      970.00399    
      5300   10600          299.13782      869.8509       13763.419      11322.311      7168.1595      4154.1515      2434.1196      2459.0126      8738.1837      0             -9477.1643      0              0             -302.06088      192427.09      57.732726      57.732726      57.732726      0.93874715     816.75836      719.74197      1073.0524    
      5400   10800          296.96772      833.87578      13586.322      11246.49       7116.1579      4130.3324      2386.1597      2458.3609      8739.0549      0             -9453.2432      0              0             -302.10177      192401.04      57.730122      57.730122      57.730122      0.93887422     1174.637       573.56585      753.42447    
      5500   11000          295.30656      1003.0394      13989.635      11175.403      7076.352       4099.0508      2373.3724      2413.2461      8790.7331      0             -9478.3007      0              0             -302.13057      192382.7       57.728287      57.728287      57.728287      0.93896375     1204.4399      677.87268      1126.8056    
      5600   11200          302.45263      1575.7704      15814.338      11395.958      7247.5912      4148.3664      2390.5514      2475.4013      8766.1157      0             -9483.7021      0              0             -302.31966      192262.37      57.716249      57.716249      57.716249      0.93955138     1734.2259      1775.7323      1217.353     
      5700   11400          303.83329      1095.0629      14537.924      11459.609      7280.6757      4178.933       2454.0236      2394.4362      8772.322       0             -9441.8488      0              0             -301.55226      192751.65      57.765167      57.765167      57.765167      0.93716645     1157.395       650.75636      1477.0374    
      5800   11600          297.78096      684.73179      13177.118      11251.238      7135.6453      4115.593       2389.83        2390.8763      8780.969       0             -9446.0822      0              0             -301.38938      192855.81      57.775571      57.775571      57.775571      0.93666027     728.19716      734.07815      591.92006    
      5900   11800          300.55978      1259.1972      14967.205      11428.575      7202.2335      4226.3412      2463.8785      2424.2545      8774.8548      0             -9436.6466      0              0             -301.64432      192692.82      57.759289      57.759289      57.759289      0.93745258    -64.398907      2047.4972      1794.4934    
      6000   12000          301.32392      733.59414      13449.562      11387.746      7220.5443      4167.2018      2421.2349      2426.638       8764.6691      0             -9445.3402      0              0             -301.60777      192716.17      57.761623      57.761623      57.761623      0.93733898     890.65594      844.72698      465.39951    
      6100   12200          298.79254      900.57509      13852.308      11320.226      7159.8855      4160.3404      2458.7748      2364.3632      8777.913       0             -9440.7106      0              0             -301.49403      192788.87      57.768885      57.768885      57.768885      0.9369855      250.67632      1751.3481      699.70086    
      6200   12400          304.13064      809.26342      13759.652      11483.498      7287.8011      4195.6966      2479.1299      2428.6659      8709.3899      0             -9421.4891      0              0             -301.38713      192857.26      57.775715      57.775715      57.775715      0.93665326     531.48057      995.16619      901.14349    
      6300   12600          299.18344      950.28113      13982.341      11306.306      7169.2525      4137.0532      2456.642       2381.5723      8724.6074      0             -9425.7685      0              0             -301.02102      193091.81      57.799128      57.799128      57.799128      0.93551548     1076.1812      931.29414      843.36801    
      6400   12800          301.03137      382.39223      12312.264      11234.344      7213.534       4020.8096      2366.7263      2339.4233      8705.7336      0             -9391.0737      0              0             -300.71758      193286.65      57.818562      57.818562      57.818562      0.93457245     1200.2115      46.296005     -99.330783    
      6500   13000          305.90786      1179.1913      14737.468      11421.585      7330.388       4091.1972      2366.6169      2410.5353      8715.9772      0             -9401.9321      0              0             -301.4544       192814.22      57.771417      57.771417      57.771417      0.93686233     419.22106      1337.6107      1780.7421    
      6600   13200          300.07329      984.52605      14081.254      11303.857      7190.5758      4113.2812      2389.5799      2404.8395      8748.8554      0             -9429.9937      0              0             -300.48714      193434.88      57.833338      57.833338      57.833338      0.93385628     1017.5323      575.5411       1360.5047    
      6700   13400          303.40886      1013.4699      14328.417      11471.468      7270.5053      4200.9627      2449.9543      2422.9625      8752.4144      0             -9424.3685      0              0             -300.70803      193292.8       57.819175      57.819175      57.819175      0.93454274     1057.9711      744.31533      1238.1234    
      6800   13600          298.56329      1251.3564      14940.232      11422.83       7154.3922      4268.4376      2451.2174      2443.7162      8772.5367      0             -9399.0327      0              0             -301.57515      192737.02      57.763705      57.763705      57.763705      0.9372376      977.84369      1466.1553      1310.0703    
      6900   13800          301.86641      1358.8122      15221.522      11405.849      7233.5438      4172.3057      2454.1908      2340.9247      8833.8701      0             -9456.6799      0              0             -301.8735       192546.53      57.744669      57.744669      57.744669      0.93816481     1090.3846      1090.4487      1895.6035    
      7000   14000          295.43795      978.50466      13994.872      11241.241      7079.5005      4161.7404      2402.3379      2429.0733      8782.0267      0             -9451.6975      0              0             -301.22691      192959.83      57.785956      57.785956      57.785956      0.93615534     1085.5642      704.62132      1145.3284    
      7100   14200          303.41525      1158.0719      14645.243      11383.661      7270.6584      4113.0023      2415.6627      2323.5493      8838.0587      0             -9464.2684      0              0             -300.98426      193115.39      57.801481      57.801481      57.801481      0.93540124     1041.3906      878.23243      1554.5926    
      7200   14400          300.89369      1314.0912      15132.168      11435.459      7210.2349      4225.2239      2446.2786      2412.7599      8805.7538      0             -9439.5684      0              0             -301.33307      192891.85      57.779169      57.779169      57.779169      0.93648527     1717.0559      758.35001      1466.8676    
      7300   14600          294.90251      1478.4687      15383.737      11228.294      7066.6698      4161.6238      2409.96        2400.5706      8782.2435      0             -9431.1502      0              0             -301.60001      192721.13      57.762118      57.762118      57.762118      0.93731485     1385.5099      1455.2839      1594.6121    
      7400   14800          299.24706      987.427        14074.094      11304.947      7170.7772      4134.1694      2405.987       2417.0627      8739.5867      0             -9428.467       0              0             -302.27028      192293.78      57.719392      57.719392      57.719392      0.93939792     1809.5312      470.58892      682.16085    
      7500   15000          297.78057      734.49136      13386.957      11331.196      7135.6359      4195.5604      2430.3035      2407.3107      8784.1638      0             -9426.2175      0              0             -302.86618      191915.44      57.681512      57.681512      57.681512      0.94124986     612.17907      485.64909      1105.6459    
      7600   15200          295.44599      647.01287      13064.02       11245.024      7079.6931      4165.3308      2403.3385      2385.8816      8813.9767      0             -9437.866       0              0             -301.52104      192771.61      57.767161      57.767161      57.767161      0.93706942     376.86055      1362.6423      201.5357     
      7700   15400          304.6156       311.23282      12367.933      11493.89       7299.422       4194.4685      2433.0811      2397.5257      8791.0586      0             -9427.1969      0              0             -301.84874      192562.33      57.746248      57.746248      57.746248      0.93808785     547.31264      562.30042     -175.9146     
      7800   15600          297.14077      873.86835      13794.791      11347.45       7120.3047      4227.1453      2416.4272      2415.558       8859.4402      0             -9464.2801      0              0             -302.68303      192031.56      57.693144      57.693144      57.693144      0.94068066     705.77412      1420.9876      494.8433     
      7900   15800          297.39457      1049.3232      14218.463      11275.29       7126.3863      4148.9032      2333.3401      2392.4236      8851.082       0             -9427.9425      0              0             -302.2247       192322.78      57.722293      57.722293      57.722293      0.93925626     1552.3355      1050.2381      545.39602    
      8000   16000          303.82932      994.25781      14286.385      11499.054      7280.5807      4218.4733      2398.6058      2428.1555      8824.1063      0             -9432.3942      0              0             -302.37579      192226.68      57.712677      57.712677      57.712677      0.93972584     771.90488      1230.3922      980.47635    
      8100   16200          301.13759      1468.6455      15431.499      11310.113      7216.0793      4094.0337      2381.3841      2349.2766      8813.7919      0             -9450.419       0              0             -302.07184      192420.11      57.732028      57.732028      57.732028      0.93878121     1154.0926      1473.3976      1778.4463    
      8200   16400          297.9859       1077.032       14368.979      11331.185      7140.5563      4190.6287      2412.8092      2393.2819      8827.8514      0             -9443.3138      0              0             -300.54313      193398.85      57.829747      57.829747      57.829747      0.93403027     844.13745      996.69436      1390.2641    
      8300   16600          304.03056      1181.2536      14825.884      11505.303      7285.4028      4219.9002      2425.3606      2457.1572      8787.2747      0             -9449.8923      0              0             -301.55441      192750.27      57.76503       57.76503       57.76503       0.93717314     1357.5797      587.54984      1598.6312    
      8400   16800          301.50864      1320.8068      15040.142      11346.339      7224.9708      4121.3686      2314.3219      2454.9114      8849.2457      0             -9497.1104      0              0             -303.11133      191760.22      57.665957      57.665957      57.665957      0.94201174     973.27031      1117.793       1871.3572    
      8500   17000          300.23555      845.84507      13760.173      11385.707      7194.464       4191.2427      2407.4329      2499.6499      8757.5141      0             -9473.3542      0              0             -301.96826      192486.11      57.738628      57.738628      57.738628      0.93845931     478.30226      881.2351       1177.9979    
      8600   17200          302.00355      1474.4753      15505.813      11366.437      7236.8302      4129.6069      2424.9674      2407.5859      8777.3322      0             -9480.2785      0              0             -301.95291      192495.89      57.739607      57.739607      57.739607      0.93841159     2218.1115      690.48404      1514.8304    
      8700   17400          297.25235      1111.3224      14357.062      11251.104      7122.9784      4128.1257      2417.5138      2382.6946      8794.7055      0             -9466.7882      0              0             -303.30603      191637.12      57.653616      57.653616      57.653616      0.94261682     1386.1462      989.13895      958.68202    
      8800   17600          297.63496      1373.6704      15193.089      11355.682      7132.1467      4223.535       2453.6882      2433.8189      8796.9683      0             -9460.9404      0              0             -303.44589      191548.79      57.644756      57.644756      57.644756      0.9430515      1434.4709      1236.4784      1450.062     
      8900   17800          297.08968      580.39596      12789.984      11159.662      7119.0803      4040.5818      2359.0673      2409.8555      8746.4024      0             -9474.7433      0              0             -301.77808      192607.41      57.750755      57.750755      57.750755      0.93786826     828.40536      649.41327      263.36925    
      9000   18000          297.74108      1354.7949      15151.441      11348.177      7134.6898      4213.4869      2417.5745      2479.7922      8770.8989      0             -9454.7788      0              0             -301.96291      192489.52      57.73897       57.73897       57.73897       0.93844267     1682.716       1017.9672      1363.7015    
      9100   18200          298.4443       1241.1716      14853.238      11365.672      7151.5408      4214.1316      2433.6506      2424.7471      8795.0459      0             -9439.312       0              0             -301.67962      192670.27      57.757037      57.757037      57.757037      0.93756227     1327.7193      1139.7606      1256.035     
      9200   18400          304.21469      1012.4011      14231.845      11379.782      7289.8151      4089.9668      2406.0864      2370.8854      8776.1244      0             -9463.1294      0              0             -300.90542      193165.99      57.806529      57.806529      57.806529      0.93515622     834.86691      971.17189      1231.1646    
      9300   18600          297.7896       1004.143       14144.888      11328.548      7135.8524      4192.6955      2468.9523      2352.6393      8817.6714      0             -9446.5675      0              0             -302.23654      192315.25      57.72154       57.72154       57.72154       0.93929306     914.55036      984.08019      1113.7984    
      9400   18800          298.39882      1242.7095      14726.846      11250.87       7150.4508      4100.4189      2420.079       2373.2494      8804.0933      0             -9497.0027      0              0             -303.06055      191792.35      57.669178      57.669178      57.669178      0.94185393     1354.0432      508.1586       1865.9266    
      9500   19000          303.04015      722.53669      13443.824      11418.319      7261.6698      4156.6488      2383.3253      2464.1461      8800.3389      0             -9491.1615      0              0             -302.38694      192219.6       57.711968      57.711968      57.711968      0.93976047     665.20636      208.29627      1294.1074    
      9600   19200          302.87006      1436.7161      15383.134      11346.087      7257.594       4088.493       2421.4354      2373.7384      8797.6676      0             -9504.3484      0              0             -301.67804      192671.28      57.757137      57.757137      57.757137      0.93755737     1466.2495      1538.0814      1305.8172    
      9700   19400          297.36125      809.84555      13488.207      11216.415      7125.588       4090.8267      2419.4553      2348.5353      8759.6698      0             -9436.8336      0              0             -302.1831       192349.25      57.724942      57.724942      57.724942      0.939127       1192.5598      600.49041      636.4864     
      9800   19600          304.74836      1384.8339      15217.327      11343.967      7302.6032      4041.3642      2414.1052      2378.2647      8746.9631      0             -9497.9689      0              0             -303.0724       191784.85      57.668426      57.668426      57.668426      0.94189077     1597.5223      1416.3051      1140.6742    
      9900   19800          294.8903       728.02801      13215.518      11175.615      7066.3773      4109.2379      2410.4112      2377.1702      8802.5497      0             -9480.8932      0              0             -302.53466      192125.74      57.702574      57.702574      57.702574      0.94021956     550.31922      917.73009      716.03472    
     10000   20000          302.66295      1827.7663      16386.378      11281.547      7252.6311      4028.9163      2415.818       2383.8908      8699.4394      0             -9470.2319      0              0             -303.51202      191507.06      57.640569      57.640569      57.640569      0.94325702     2213.2385      1928.8339      1341.2263    
     10100   20200          304.2388       972.9325       14043.557      11320.717      7290.3927      4030.3244      2392.7924      2403.7562      8736.438       0             -9502.6623      0              0             -302.89854      191894.93      57.679458      57.679458      57.679458      0.94135044     821.64216      1012.8552      1084.3002    
     10200   20400          297.67123      725.74089      13220.896      11188.528      7133.0159      4055.5121      2335.8391      2431.2504      8799.1347      0             -9510.7121      0              0             -302.70241      192019.26      57.691912      57.691912      57.691912      0.94074091     947.78447      831.07765      398.36056    
     10300   20600          298.14347      1135.4623      14479.378      11302.308      7144.3319      4157.9762      2441.4958      2383.0108      8807.6125      0             -9474.143       0              0             -302.95803      191857.25      57.675682      57.675682      57.675682      0.94153534     1193.4551      1339.5592      873.37258    
     10400   20800          300.25703      1318.8291      15061.548      11368.301      7194.9786      4173.322       2484.7285      2413.39        8754.3651      0             -9479.1615      0              0             -302.703        192018.89      57.691875      57.691875      57.691875      0.94074274     1526.9111      1310.9221      1118.6541    
     10500   21000          294.16071      761.14467      13297.804      11158.408      7048.8943      4109.5133      2444.4282      2340.3433      8770.002       0             -9445.2603      0              0             -301.58699      192729.45      57.76295       57.76295       57.76295       0.93727438     789.69596      280.32558      1213.4125    
     10600   21200          298.15239      1217.5182      14792.916      11375.81       7144.5458      4231.2641      2473.9909      2367.1975      8851.4191      0             -9461.3434      0              0             -302.0324       192445.23      57.734541      57.734541      57.734541      0.93865864     1428.7657      1178.9991      1044.7899    
     10700   21400          299.40898      526.71174      12836.012      11363.425      7174.6572      4188.768       2432.3347      2425.237       8824.8421      0             -9493.6457      0              0             -303.19965      191704.36      57.660357      57.660357      57.660357      0.94228624    -208.94301      685.03422      1104.044     
     10800   21600          297.87993      1153.0941      14432.221      11206.665      7138.017       4068.6485      2472.1756      2326.9465      8765.4621      0             -9495.9356      0              0             -303.03776      191806.77      57.670623      57.670623      57.670623      0.94178312     1129.1121      1221.1476      1109.0226    
     10900   21800          299.61482      869.07736      13706.724      11280.141      7179.5897      4100.5513      2402.0572      2429.3318      8770.5752      0             -9501.4129      0              0             -303.59868      191452.4       57.635085      57.635085      57.635085      0.94352634     1015.1048      227.84359      1364.2837    
     11000   22000          299.85474      1369.0714      15093.788      11270.87       7185.3388      4085.5315      2367.2654      2444.8365      8751.6683      0             -9478.2387      0              0             -303.57617      191466.59      57.636509      57.636509      57.636509      0.94345637     987.49247      1637.0456      1482.6762    
     11100   22200          297.64642      740.92737      13363.23       11281.617      7132.4213      4149.196       2416.2429      2444.1021      8750.1798      0             -9461.3289      0              0             -301.72574      192640.82      57.754094      57.754094      57.754094      0.93770559     509.64811      436.53667      1276.5973    
     11200   22400          304.07901      938.52096      14112.513      11471.376      7286.5638      4184.8124      2462.3039      2378.7191      8803.6917      0             -9459.9023      0              0             -301.22406      192961.66      57.786139      57.786139      57.786139      0.93614647     1197.4987      717.84968      900.21445    
     11300   22600          297.03479      1138.4127      14503.709      11306.961      7117.7652      4189.1953      2452.3423      2404.276       8783.966       0             -9451.389       0              0             -301.87546      192545.28      57.744544      57.744544      57.744544      0.93817091     1202.8462      1168.9748      1043.4171    
     11400   22800          298.10772      1399.0987      15171.781      11255.55       7143.4753      4112.0744      2429.8521      2420.0033      8766.8426      0             -9504.6236      0              0             -302.84231      191930.57      57.683028      57.683028      57.683028      0.94117567     1775.9011      1401.9527      1019.4421    
     11500   23000          302.64287      1687.8727      16071.627      11361.315      7252.15        4109.1652      2438.0992      2396.1135      8787.6088      0             -9512.6563      0              0             -303.7572       191352.48      57.625057      57.625057      57.625057      0.944019       1496.3937      1500.62        2066.6044    
     11600   23200          301.18493      1349.9201      15196.128      11415.031      7217.2138      4197.8174      2481.6842      2427.165       8818.5472      0             -9529.579       0              0             -302.64034      192058.65      57.695856      57.695856      57.695856      0.94054801     838.47941      1573.4412      1637.8397    
     11700   23400          297.25799      1093.7927      14265.21       11196.024      7123.1134      4072.9103      2421.8219      2384.2969      8763.3986      0             -9496.6072      0              0             -302.09834      192403.22      57.73034       57.73034       57.73034       0.93886358     360.54237      1640.503       1280.3329    
     11800   23600          303.10933      957.15173      14057.977      11376.407      7263.3277      4113.0796      2462.079       2389.5833      8747.4401      0             -9486.0228      0              0             -302.57167      192102.24      57.700221      57.700221      57.700221      0.94033459     776.12592      1369.6837      725.64558    
     11900   23800          300.49576      892.75363      13840.941      11342.852      7200.6994      4142.153       2446.3047      2395.5912      8796.6637      0             -9496.4066      0              0             -302.94264      191867         57.676659      57.676659      57.676659      0.94148749     1296.5322      397.47033      984.25835    
     12000   24000          296.26213      1568.6409      15530.06       11156.306      7099.2499      4057.0563      2430.3031      2369.5185      8773.778       0             -9516.5432      0              0             -304.02252      191185.49      57.608289      57.608289      57.608289      0.94484355     1257.6929      1360.9684      2087.2614    
     12100   24200          298.26718      657.87402      13061.184      11214.829      7147.2965      4067.5326      2380.6313      2386.48        8766.2004      0             -9465.7791      0              0             -302.0397       192440.58      57.734076      57.734076      57.734076      0.93868133     811.39741      517.04249      645.18217    
     12200   24400          301.40814      491.07805      12759.673      11379.868      7222.5625      4157.3051      2446.0156      2427.6141      8765.3884      0             -9481.713       0              0             -301.69576      192659.97      57.756007      57.756007      57.756007      0.93761241     135.60666      448.54917      889.07831    
     12300   24600          295.17867      1347.5489      14957.931      11189.943      7073.2874      4116.6556      2396.5936      2446.3766      8760.3938      0             -9486.7085      0              0             -303.15978      191729.57      57.662885      57.662885      57.662885      0.94216232     1427.6763      801.80931      1813.161     
     12400   24800          302.96118      997.092        14016.92       11231.412      7259.7775      3971.6349      2395.2859      2324.0511      8754.2838      0             -9501.9859      0              0             -303.43624      191554.89      57.645367      57.645367      57.645367      0.94302151     1130.1677      975.37836      885.72996    
     12500   25000          305.61745      317.15694      12311.997      11421.765      7323.429       4098.3357      2403.6422      2382.713       8794.1031      0             -9482.1227      0              0             -302.00036      192465.64      57.736582      57.736582      57.736582      0.93855908     818.77038     -372.62041      505.32085    
     12600   25200          302.37289      1286.3618      15003.642      11391.235      7245.6804      4145.555       2465.4268      2370.3406      8772.9662      0             -9463.1787      0              0             -301.85824      192556.27      57.745643      57.745643      57.745643      0.93811737     1531.7366      1120.6675      1206.6812    
     12700   25400          298.73624      964.80036      13973.75       11278.048      7158.5366      4119.5111      2452.1472      2386.9026      8752.3801      0             -9471.9187      0              0             -303.39059      191583.71      57.648259      57.648259      57.648259      0.94287962     1100.9569      605.30867      1188.1355    
     12800   25600          303.51057      1057.5079      14367.634      11409.388      7272.9425      4136.4454      2445.5279      2420.0648      8754.4492      0             -9483.5965      0              0             -303.03015      191811.59      57.671106      57.671106      57.671106      0.94175945     1169.7257      1062.4754      940.32245    
     12900   25800          303.07721      1164.5097      14675.444      11414.983      7262.558       4152.4253      2431.0015      2402.6408      8849.361       0             -9530.578       0              0             -302.76157      191981.75      57.688155      57.688155      57.688155      0.94092475     1261.4874      1217.2114      1014.8303    
     13000   26000          299.26484      1198.1507      14641.74       11296.872      7171.2032      4125.6683      2425.5366      2356.015       8837.3364      0             -9493.2196      0              0             -303.64696      191421.95      57.63203       57.63203       57.63203       0.9436764      874.38843      946.43376      1773.63      
     13100   26200          302.83403      1012.5851      14329.899      11491.678      7256.7307      4234.9471      2474.7248      2438.2926      8825.6032      0             -9503.6735      0              0             -302.42784      192193.6       57.709366      57.709366      57.709366      0.9398876      821.68647      993.57686      1222.4919    
     13200   26400          304.06109      1175.2298      14720.929      11431.563      7286.1345      4145.4284      2394.9369      2398.512       8836.4686      0             -9484.4891      0              0             -302.8637       191917.01      57.68167       57.68167       57.68167       0.94124215     926.06114      1517.2005      1082.4277    
     13300   26600          296.97089      674.03737      13205.688      11310.637      7116.2338      4194.4031      2450.8195      2410.8388      8798.3609      0             -9465.6162      0              0             -301.50861      192779.55      57.767954      57.767954      57.767954      0.9370308      416.87237      750.99759      854.24216    
     13400   26800          298.56697      1307.7801      15048.423      11368.907      7154.4803      4214.4272      2517.9605      2359.3026      8814.5477      0             -9477.3836      0              0             -301.28719      192921.23      57.782102      57.782102      57.782102      0.93634267     1858.4372      1466.7193      598.18398    
     13500   27000          302.38545      943.50494      14178.64       11528.033      7245.9815      4282.052       2508.7781      2384.6682      8810.1387      0             -9421.5331      0              0             -301.74182      192630.55      57.753068      57.753068      57.753068      0.93775558     428.97052      1300.5573      1100.987     
     13600   27200          301.56598      1511.7247      15552.531      11305.253      7226.3448      4078.908       2440.6177      2313.469       8800.3453      0             -9475.5241      0              0             -301.71617      192646.93      57.754704      57.754704      57.754704      0.93767586     1369.9815      1405.8072      1759.3853    
     13700   27400          299.94371      572.37314      12937.108      11333.183      7187.4707      4145.7126      2452.8875      2382.7013      8808.626       0             -9498.5022      0              0             -302.50445      192144.92      57.704494      57.704494      57.704494      0.94012569     635.3676       812.46884      269.283      
     13800   27600          297.34545      1492.0248      15446.109      11280.811      7125.2094      4155.6017      2417.8349      2390.5382      8855.0213      0             -9507.7928      0              0             -303.64527      191423.02      57.632136      57.632136      57.632136      0.94367114     928.98668      1638.1345      1908.9531    
     13900   27800          302.66686      1317.1182      15092.882      11403.425      7252.7248      4150.7003      2439.4572      2411.5895      8839.7687      0             -9540.1151      0              0             -302.62086      192071.01      57.697094      57.697094      57.697094      0.94048747     983.87997      1422.5213      1544.9535    
     14000   28000          301.24152      1016.8751      14271.646      11420.352      7218.5697      4201.7825      2440.449       2392.0874      8829.9887      0             -9460.7426      0              0             -302.31674      192264.23      57.716435      57.716435      57.716435      0.93954232     698.80647      826.49189      1525.3268    
     14100   28200          297.52636      1239.5217      14651.207      11174.296      7129.5444      4044.7517      2378.4915      2389.6708      8789.1537      0             -9512.5643      0              0             -302.20188      192337.3       57.723746      57.723746      57.723746      0.93918535     921.86363      1316.7339      1479.9675    
     14200   28400          297.61057      637.84201      13095.637      11313.432      7131.5623      4181.8695      2423.9973      2389.9702      8846.007       0             -9478.1048      0              0             -303.38347      191588.21      57.648709      57.648709      57.648709      0.94285751     537.35013      590.40554      785.77035    
     14300   28600          299.54083      1358.8486      15190.557      11392.459      7177.8166      4214.6422      2504.5813      2397.6127      8821.6576      0             -9509.2095      0              0             -303.27839      191654.59      57.655367      57.655367      57.655367      0.94253094     1518.4021      1663.5203      894.62344    
     14400   28800          299.85286      853.53271      13743.035      11348.837      7185.2938      4163.5436      2390.1558      2396.2861      8871.6431      0             -9494.5414      0              0             -302.20161      192337.48      57.723763      57.723763      57.723763      0.9391845      914.21252      831.54449      814.84111    
     14500   29000          302.06425      853.58736      13801.73       11403.69       7238.2847      4165.4055      2455.9106      2380.2202      8766.2557      0             -9436.981       0              0             -301.73667      192633.85      57.753397      57.753397      57.753397      0.93773956     943.34346      922.66773      694.75089    
     14600   29200          300.11865      1010.0308      14095.744      11258.511      7191.6627      4066.8478      2402.8081      2427.2894      8764.535       0             -9527.7848      0              0             -301.77005      192612.54      57.751267      57.751267      57.751267      0.9378433      1648.9539      632.45897      748.67941    
     14700   29400          296.66096      1453.4217      15428.283      11357.218      7108.807       4248.4109      2490.9118      2427.7807      8815.718       0             -9485.9997      0              0             -302.63567      192061.61      57.696153      57.696153      57.696153      0.94053349     1591.9479      1116.5452      1651.772     
     14800   29600          303.40512      958.9253       14165.141      11484.249      7270.4155      4213.8335      2483.4899      2428.1551      8769.4084      0             -9467.2198      0              0             -303.20893      191698.49      57.659769      57.659769      57.659769      0.94231506     1444.1105      763.33086      669.33455    
     14900   29800          299.43392      1122.3937      14397.599      11260.965      7175.2548      4085.7104      2419.0684      2436.1847      8763.6122      0             -9533.155       0              0             -303.33184      191620.82      57.65198       57.65198       57.65198       0.94269705     1303.28        1423.6743      640.22693    
     15000   30000          296.1437       993.35821      14051.111      11272.72       7096.4121      4176.3083      2419.3069      2460.411       8804.4285      0             -9507.8381      0              0             -303.07429      191783.66      57.668306      57.668306      57.668306      0.94189663     1282.805       1017.6112      679.65848    
     15100   30200          301.37171      1087.0777      14317.588      11276.98       7221.6896      4055.2901      2443.421       2357.0323      8768.6889      0             -9513.8522      0              0             -303.06565      191789.12      57.668854      57.668854      57.668854      0.9418698      1217.4412      759.06044      1284.7313    
     15200   30400          299.08794      635.27092      12958.672      11180.747      7166.964       4013.7828      2408.4238      2356.257       8718.8072      0             -9469.7052      0              0             -302.888        191901.61      57.680127      57.680127      57.680127      0.94131769     683.64562      1332.2879     -110.12078    
     15300   30600          297.63453      752.92017      13432.404      11323.486      7132.1365      4191.349       2487.0449      2443.9474      8760.124       0             -9499.7674      0              0             -302.63962      192059.11      57.695902      57.695902      57.695902      0.94054575     872.24103      252.14813      1134.3713    
     15400   30800          298.03917      806.82872      13553.608      11297.516      7141.8328      4155.6833      2434.6365      2456.2791      8745.9449      0             -9481.1772      0              0             -303.15251      191734.17      57.663346      57.663346      57.663346      0.94213974     583.5499       1142.5709      694.36537    
     15500   31000          295.30983      1037.7775      14098.937      11199.929      7076.4303      4123.4991      2408.5357      2354.5569      8860.0556      0             -9499.6491      0              0             -303.45299      191544.31      57.644307      57.644307      57.644307      0.94307358     990.36834      434.08321      1688.8809    
     15600   31200          304.85999      743.4451       13451.602      11368.518      7305.2781      4063.2399      2443.123       2346.5206      8780.194       0             -9506.5977      0              0             -302.53711      192124.18      57.702417      57.702417      57.702417      0.94022719     1126.7795      526.48453      577.07124    
     15700   31400          294.69663      857.34213      13587.007      11189.601      7061.7364      4127.8648      2421.6859      2400.8669      8803.6935      0             -9498.3815      0              0             -303.14411      191739.48      57.663878      57.663878      57.663878      0.94211363     1106.6218      612.77327      852.63135    
     15800   31600          297.70631      948.94819      13910.732      11260.227      7133.8566      4126.3704      2451.0359      2386.2322      8778.81        0             -9489.7077      0              0             -303.49419      191518.31      57.641698      57.641698      57.641698      0.94320162     848.92971      952.15038      1045.7645    
     15900   31800          300.22232      544.60413      12896.439      11368.057      7194.147       4173.9104      2467.77        2435.534       8773.082       0             -9502.4756      0              0             -302.05478      192430.97      57.733115      57.733115      57.733115      0.93872818     572.39808      728.93272      332.4816     
     16000   32000          298.96138      1435.0135      15411.871      11393.031      7163.9315      4229.099       2481.403       2382.9583      8810.7516      0             -9446.0138      0              0             -302.68561      192029.92      57.692979      57.692979      57.692979      0.94068871     878.27098      1887.3731      1539.3963    
     16100   32200          300.90275      737.12907      13456.27       11391.246      7210.452       4180.7939      2433.7854      2420.8327      8830.7206      0             -9504.5448      0              0             -302.59029      192090.41      57.699037      57.699037      57.699037      0.94039246     636.11144      1040.2674      535.00839    
     16200   32400          300.88685      728.54316      13299.215      11252.42       7210.0709      4042.3487      2397.3993      2399.0496      8715.6657      0             -9469.7658      0              0             -301.72931      192638.54      57.753866      57.753866      57.753866      0.93771669     607.66401      625.84146      952.12402    
     16300   32600          300.5255       478.70792      12721.449      11376.862      7201.4121      4175.4501      2463.5035      2358.0457      8857.1034      0             -9503.2025      0              0             -301.7993       192593.87      57.749401      57.749401      57.749401      0.9379342      44.833197      458.85532      932.43524    
     16400   32800          302.91375      780.59001      13614.742      11436.972      7258.6411      4178.3305      2417.0335      2428.5097      8799.4513      0             -9466.6639      0              0             -303.84173      191299.25      57.619712      57.619712      57.619712      0.9442817      906.20041      663.53103      772.03861    
     16500   33000          299.22617      948.12911      13903.624      11251.176      7170.2766      4080.8995      2445.5865      2365.4646      8812.3274      0             -9542.479       0              0             -303.01017      191824.24      57.672374      57.672374      57.672374      0.94169735     947.1638       866.68814      1030.5354    
     16600   33200          297.47979      874.0079       13824.007      11374.909      7128.4284      4246.4802      2457.9806      2462.9715      8815.4584      0             -9489.9303      0              0             -302.5141       192138.8       57.703881      57.703881      57.703881      0.94015566     1044.1746      454.03089      1123.8182    
     16700   33400          298.28844      1113.2036      14587.187      11477.756      7147.8059      4329.9505      2457.9232      2468.6523      8881.2258      0             -9477.8508      0              0             -303.48014      191527.18      57.642588      57.642588      57.642588      0.94315794     1308.8349      798.41758      1232.3581    
     16800   33600          302.1131       1458.1077      15423.98       11345.976      7239.4553      4106.5208      2479.8724      2378.3339      8705.1652      0             -9456.8507      0              0             -303.09487      191770.63      57.667001      57.667001      57.667001      0.9419606      1349.1276      1504.6346      1520.5611    
     16900   33800          297.86364      1098.8382      14308.495      11228.244      7137.6265      4090.617       2408.0391      2422.8831      8730.4007      0             -9470.7059      0              0             -302.40166      192210.24      57.711032      57.711032      57.711032      0.93980622     1073.6875      799.55445      1423.2726    
     17000   34000          298.75387      618.30546      13216.719      11483.258      7158.9589      4324.2991      2508.2131      2498.8194      8775.6693      0             -9458.4026      0              0             -302.36092      192236.13      57.713623      57.713623      57.713623      0.93967963     239.97115      433.16028      1181.7849    
     17100   34200          300.66916      1079.2065      14434.76       11407.381      7204.8545      4202.5261      2522.4023      2397.1442      8736.5949      0             -9453.6153      0              0             -302.18596      192347.43      57.72476       57.72476       57.72476       0.93913589     1189.0535      796.0142       1252.5517    
     17200   34400          294.4483       631.43492      12997.87       11229.985      7055.7856      4174.1996      2491.7674      2396.3555      8781.6425      0             -9495.5658      0              0             -302.76883      191977.14      57.687693      57.687693      57.687693      0.94094734     733.03259      450.88424      710.38793    
     17300   34600          300.48518      1931.7235      16688.547      11316.975      7200.4458      4116.5294      2471.8415      2416.9175      8772.5767      0             -9544.8063      0              0             -304.84578      190669.18      57.556384      57.556384      57.556384      0.94740208     1581.8631      1986.8071      2226.5004    
     17400   34800          300.00477      1208.266       14657.944      11287.503      7188.9339      4098.5686      2418.3352      2434.8818      8774.8261      0             -9529.4745      0              0             -303.88716      191270.65      57.616842      57.616842      57.616842      0.94442286     1610.9421      1538.149       475.70684    
     17500   35000          296.62396      879.8546       13727.005      11253.613      7107.9204      4145.6929      2450.9635      2427.5172      8744.7217      0             -9477.5095      0              0             -301.54664      192755.24      57.765526      57.765526      57.765526      0.937149       432.62895      1331.5097      875.42516    
     17600   35200          299.06644      1008.4597      14255.053      11421.64       7166.4489      4255.1909      2470.7343      2445.9324      8749.6068      0             -9411.0826      0              0             -301.70687      192652.87      57.755298      57.755298      57.755298      0.93764696     751.60909      1609.8672      663.90278    
     17700   35400          296.20233      511.88548      12684.183      11246.506      7097.8171      4148.6892      2469.8738      2394.8582      8752.3573      0             -9468.4001      0              0             -301.82007      192580.61      57.748076      57.748076      57.748076      0.93799876     534.8151       574.53975      426.30159    
     17800   35600          297.63867      969.35241      14014.936      11296.953      7132.2357      4164.7169      2430.2355      2435.0519      8776.5529      0             -9477.1234      0              0             -302.32315      192260.15      57.716027      57.716027      57.716027      0.93956224     1236.5675      454.45845      1217.0313    
     17900   35800          300.15364      479.96023      12669.857      11331.357      7192.5012      4138.8557      2445.9255      2434.0928      8721.152       0             -9462.3145      0              0             -303.96496      191221.69      57.611925      57.611925      57.611925      0.94466468     783.62971     -228.89951      885.15048    
     18000   36000          296.32548      1281.7618      14747.563      11163.995      7100.7682      4063.2265      2423.3719      2405.6465      8747.4541      0             -9513.246       0              0             -303.19932      191704.57      57.660378      57.660378      57.660378      0.94228521     1530.672       1379.3607      935.25273    
     18100   36200          300.93915      1017.107       14108.662      11260.113      7211.3241      4048.7888      2423.9007      2380.7841      8741.7279      0             -9497.6238      0              0             -302.67709      192035.33      57.693521      57.693521      57.693521      0.94066222     1005.5584      1118.5807      927.18184    
     18200   36400          304.20673      1505.2552      15601.637      11386.454      7289.6244      4096.8294      2427.9792      2442.7249      8724.1866      0             -9498.0613      0              0             -302.71239      192012.93      57.691278      57.691278      57.691278      0.94077193     1178.7747      1629.7239      1707.267     
     18300   36600          298.12774      1665.7275      15860.382      11199.97       7143.9551      4056.0147      2387.9787      2400.5731      8761.7249      0             -9494.262       0              0             -302.98154      191842.36      57.67419       57.67419       57.67419       0.94160838     1735.5957      1978.1453      1283.4416    
     18400   36800          303.11355      1336.3895      15116.928      11383.616      7263.4288      4120.1872      2447.139       2379.3771      8761.9409      0             -9468.2699      0              0             -303.44179      191551.38      57.645016      57.645016      57.645016      0.94303876     1212.1193      1353.3602      1443.6889    
     18500   37000          301.94039      784.24492      13560.53       11361.07       7235.3167      4125.7535      2418.3901      2447.3824      8758.001       0             -9498.02        0              0             -302.25417      192304.03      57.720417      57.720417      57.720417      0.93934787     1127.5875      640.23353      584.91369    
     18600   37200          298.52792      1463.9675      15351.471      11253.427      7153.5444      4099.883       2415.8565      2419.2203      8732.3534      0             -9467.5471      0              0             -302.82479      191941.67      57.68414       57.68414       57.68414       0.94112123     1895.1504      1203.0609      1293.6912    
     18700   37400          304.48756      907.67099      13979.551      11440.757      7296.3538      4144.4035      2471.5921      2443.2417      8701.9806      0             -9472.4109      0              0             -303.06627      191788.73      57.668815      57.668815      57.668815      0.94187171     1455.7821      892.37041      374.86049    
     18800   37600          300.54698      1200.8911      14670.015      11301.863      7201.9268      4099.936       2421.7542      2415.9968      8721.1318      0             -9458.9467      0              0             -302.23762      192314.56      57.721471      57.721471      57.721471      0.93929641     1253.1672      1071.9785      1277.5275    
     18900   37800          300.64624      1114.1489      14352.332      11221.406      7204.3053      4017.1011      2388.4252      2398.4095      8707.9575      0             -9477.6911      0              0             -301.6526       192687.53      57.758761      57.758761      57.758761      0.9374783      887.70727      1583.9171      870.82237    
     19000   38000          300.83745      942.31501      14107.307      11467.223      7208.8872      4258.3358      2442.53        2443.1726      8787.0935      0             -9414.4604      0              0             -302.56244      192108.1       57.700807      57.700807      57.700807      0.94030591     1152.274       989.92042      684.75056    
     19100   38200          299.22328      1208.6114      14674.694      11290.91       7170.2073      4120.7022      2451.2474      2423.1094      8755.5735      0             -9509.228       0              0             -302.77541      191972.97      57.687275      57.687275      57.687275      0.94096777     1287.4163      1461.627       876.79098    
     19200   38400          299.08038      942.8729       13957.387      11321.033      7166.783       4154.2501      2447.3069      2403.5001      8783.9815      0             -9480.5384      0              0             -303.16989      191723.18      57.662244      57.662244      57.662244      0.94219375     1311.2294      576.37166      941.01766    
     19300   38600          302.09837      1063.8494      14356.089      11381.507      7239.1022      4142.4045      2487.4914      2423.024       8730.1264      0             -9498.2373      0              0             -303.17314      191721.12      57.662038      57.662038      57.662038      0.94220385     1261.6692      1216.3539      713.52507    
     19400   38800          294.67445      807.69034      13461.593      11201.17       7061.2049      4139.9647      2443.4967      2380.958       8771.1698      0             -9455.6598      0              0             -302.89476      191897.33      57.679698      57.679698      57.679698      0.94133868     1064.5129      631.10548      727.45259    
     19500   39000          302.23846      922.85833      13992.564      11400.174      7242.4591      4157.7151      2391.5918      2411.7577      8801.1019      0             -9446.7362      0              0             -301.76675      192614.64      57.751478      57.751478      57.751478      0.93783304     135.76053      1230.1288      1402.6856    
     19600   39200          299.74029      647.79274      13243.746      11421.102      7182.5962      4238.5055      2467.6807      2427.0847      8799.042       0             -9455.302       0              0             -301.28025      192925.67      57.782546      57.782546      57.782546      0.93632111     400.08975      1107.9744      435.31412    
     19700   39400          297.66884      1588.7211      15649.118      11224.526      7132.9587      4091.5671      2405.0649      2382.5946      8807.2844      0             -9503.3768      0              0             -304.37642      190963.2       57.585953      57.585953      57.585953      0.9459434      1331.9584      1792.3178      1641.8871    
     19800   39600          301.94863      1691.2585      16036.431      11342.081      7235.5142      4106.5664      2437.7646      2368.3118      8830.8661      0             -9530.3762      0              0             -305.40142      190322.28      57.521457      57.521457      57.521457      0.94912889     1133.4915      1999.3403      1940.9437    
     19900   39800          298.80349      500.8288       12529.112      11128.19       7160.1481      3968.0424      2359.1615      2364.9155      8772.2871      0             -9528.3217      0              0             -303.04844      191800.01      57.669946      57.669946      57.669946      0.9418163      100.60654      583.69595      818.1839     
     20000   40000          299.81498      932.9131       13886.818      11279.261      7184.386       4094.8752      2432.0742      2423.4074      8755.6193      0             -9516.2257      0              0             -303.2801       191653.51      57.655258      57.655258      57.655258      0.94253626     647.80464      874.43771      1276.4969    
     20100   40200          303.6593       1355.3638      15184.759      11392.923      7276.5065      4116.4161      2452.228       2391.5249      8758.4951      0             -9485.8319      0              0             -303.00019      191830.55      57.673007      57.673007      57.673007      0.94166635     1325.1092      1361.8901      1379.0921    
     20200   40400          295.69358      205.03886      11784.475      11210.099      7085.626       4124.4732      2508.1994      2357.9857      8777.8358      0             -9519.5476      0              0             -302.60515      192080.98      57.698092      57.698092      57.698092      0.94043865     349.71777     -77.473223      342.87203    
     20300   40600          301.84858      1260.7296      14824.983      11301.542      7233.1166      4068.4253      2485.8034      2330.0851      8786.9906      0             -9534.4538      0              0             -303.31333      191632.51      57.653153      57.653153      57.653153      0.94263952     1953.2539      900.91513      928.01966    
     20400   40800          298.04347      767.66938      13461.483      11315.909      7141.9359      4173.9732      2451.1471      2379.2411      8820.5944      0             -9477.0093      0              0             -303.29645      191643.18      57.654223      57.654223      57.654223      0.94258706     1042.7104      598.12383      662.17391    
     20500   41000          299.70874      789.9203       13581.069      11366.251      7181.8403      4184.4106      2474.3148      2404.1486      8806.7255      0             -9500.7783      0              0             -302.33041      192255.53      57.715565      57.715565      57.715565      0.93958481     1022.3811      767.41715      579.96263    
     20600   41200          302.39331      1207.7215      14865.384      11485.496      7246.17        4239.3258      2482.4553      2456.1066      8792.5241      0             -9491.7602      0              0             -302.9012       191893.25      57.679289      57.679289      57.679289      0.94135871     1087.1675      1219.9247      1316.0722    
     20700   41400          298.85226      1294.8408      14895.976      11263.395      7161.3166      4102.0783      2500.6119      2317.9787      8751.3479      0             -9467.8602      0              0             -302.16048      192363.66      57.726383      57.726383      57.726383      0.93905668     1429.8576      1505.7778      948.887      
     20800   41600          299.07702      1030.5582      14227.36       11332.825      7166.7025      4166.1226      2477.2525      2397.6472      8767.6359      0             -9476.413       0              0             -301.80771      192588.5       57.748865      57.748865      57.748865      0.93796035     1029.4013      767.5557       1294.7175    
[...]
    495000   990000         300.38787      917.44922      13790.075      11229.996      7198.1141      4031.8815      2460.2856      2364.494       8755.032       0             -9547.9301      0              0             -303.78423      191335.46      57.623348      57.623348      57.623348      0.944103       458.6765       876.74018      1416.931     
    495100   990200         300.71032      1091.9497      14394.881      11348.136      7205.8409      4142.295       2472.8964      2441.7611      8772.0118      0             -9544.3743      0              0             -303.81069      191318.8       57.621675      57.621675      57.621675      0.94418522     624.02306      1231.2619      1420.564     
    495200   990400         298.57687      871.90504      13570.713      11138.623      7154.7174      3983.9053      2417.7241      2411.3081      8733.5348      0             -9578.6617      0              0             -303.89674      191264.62      57.616235      57.616235      57.616235      0.94445266     368.68636      958.19838      1288.8304    
    495300   990600         304.03109      1549.9678      15534.519      11232.604      7285.4156      3947.1882      2407.435       2360.7376      8731.028       0             -9552.0123      0              0             -305.41998      190310.71      57.520292      57.520292      57.520292      0.9491866      1038.0348      1744.3329      1867.5356    
    495400   990800         303.76578      1393.6183      15123.146      11240.935      7279.0579      3961.8772      2392.5938      2408.4836      8770.8647      0             -9610.0649      0              0             -304.29957      191011.43      57.590801      57.590801      57.590801      0.94570456     1189.207       1484.8567      1506.7913    
    495500   991000         297.96347      638.7488       12896.54       11117.54       7140.0187      3977.5215      2458.4763      2345.2146      8769.9207      0             -9596.0901      0              0             -304.36219      190972.13      57.586851      57.586851      57.586851      0.94589917     576.78932      852.8989       486.55817    
    495600   991200         300.83131      800.10467      13499.614      11282.101      7208.7401      4073.361       2482.9199      2424.5854      8760.0637      0             -9594.208       0              0             -305.85619      190039.3       57.492934      57.492934      57.492934      0.95054224     1103.2379      735.55023      561.52587    
    495700   991400         297.22915      950.97359      13715.337      11075.061      7122.4226      3952.6384      2401.5139      2388.192       8770.0701      0             -9607.1376      0              0             -305.32026      190372.87      57.526553      57.526553      57.526553      0.94887668     1486.6531      789.89965      576.36806    
    495800   991600         300.99548      865.86264      13612.309      11197.141      7212.6741      3984.4667      2391.1636      2420.9354      8739.2489      0             -9566.8812      0              0             -303.90528      191259.24      57.615696      57.615696      57.615696      0.94447921     769.47433      723.17709      1104.9365    
    495900   991800         300.62664      885.95175      13747.03       11269.554      7203.8357      4065.7184      2440.1193      2443.4598      8744.4766      0             -9562.3374      0              0             -303.13577      191744.76      57.664408      57.664408      57.664408      0.9420877      1186.5705      638.66708      832.61764    
    496000   992000         298.03567      186.05942      11649.379      11130.45       7141.749       3988.7013      2424.7968      2372.66        8758.2376      0             -9566.9931      0              0             -303.93492      191240.6       57.613823      57.613823      57.613823      0.9445713      369.60305      61.497965      127.07724    
    496100   992200         301.29759      1167.1551      14309.513      11076.799      7219.9134      3856.8853      2424.7639      2333.8276      8699.1488      0             -9600.8551      0              0             -306.05385      189916.56      57.480554      57.480554      57.480554      0.95115653     1282.8679      1237.4095      981.18779    
    496200   992400         306.57375      885.69816      13763.626      11304.929      7346.3447      3958.5839      2511.6255      2314.4888      8735.6335      0             -9603.1639      0              0             -305.3636       190345.85      57.523832      57.523832      57.523832      0.94901136     390.93575      1281.4179      984.74088    
    496300   992600         300.34174      785.50179      13444.044      11254.673      7197.0087      4057.664       2452.9768      2327.53        8812.5827      0             -9535.4254      0              0             -304.13352      191115.71      57.601279      57.601279      57.601279      0.94518853     546.16451      1150.1804      660.16042    
    496400   992800         300.67656      1159.2889      14466.221      11238.689      7205.0318      4033.6577      2456.8005      2416.9763      8770.8729      0             -9610.9921      0              0             -304.47929      190898.68      57.579468      57.579468      57.579468      0.94626309     646.96597      1533.5308      1297.3699    
    496500   993000         298.95132      675.76926      13047.52       11171.918      7163.6903      4008.2282      2443.2433      2444.9803      8749.2881      0             -9629.2836      0              0             -305.41789      190312.02      57.520423      57.520423      57.520423      0.94918009     666.40413      749.9278       610.97586    
    496600   993200         299.61567      1074.6273      14164.421      11189.525      7179.6101      4009.9149      2430.3165      2374.9555      8828.7282      0             -9624.0852      0              0             -306.21228      189818.3       57.470639      57.470639      57.470639      0.95164889     1816.3588      105.18053      1302.3425    
    496700   993400         306.81302      1041.5281      14213.305      11318.306      7352.0782      3966.2281      2427.3274      2358.9437      8816.2364      0             -9636.2794      0              0             -304.97147      190590.6       57.548476      57.548476      57.548476      0.9477927      576.06118      1620.3556      928.16745    
    496800   993600         298.8277       841.63795      13499.025      11158.934      7160.7282      3998.2056      2426.7841      2364.6276      8757.6025      0             -9550.8085      0              0             -304.88012      190647.71      57.554223      57.554223      57.554223      0.9475088      1312.6649      916.51001      295.73897    
    496900   993800         300.5533       565.53949      12854.775      11279.51       7202.0782      4077.4322      2523.638       2374.1741      8784.4702      0             -9604.8501      0              0             -304.33094      190991.74      57.588822      57.588822      57.588822      0.94580206     1050.5837     -386.2657       1032.3004    
    497000   994000         295.73788      1388.6098      14923.5        11057.126      7086.6876      3970.4386      2437.3138      2355.3316      8745.5961      0             -9567.803       0              0             -304.44788      190918.37      57.581447      57.581447      57.581447      0.9461655      1809.5221      736.04111      1620.2661    
    497100   994200         305.3732       1220.1773      14606.985      11209.441      7317.5761      3891.8647      2406.8923      2349.8737      8741.0338      0             -9605.9352      0              0             -304.43485      190926.55      57.582269      57.582269      57.582269      0.946125       1201.0523      1161.982       1297.4978    
    497200   994400         304.31561      1627.8699      15812.241      11281.722      7292.2333      3989.4886      2434.2117      2411.7783      8726.3681      0             -9582.8696      0              0             -304.58482      190832.54      57.572816      57.572816      57.572816      0.94659108     2070.1727      1445.1246      1368.3122    
    497300   994600         298.1361       882.0148       13578.871      11119.612      7144.1553      3975.4567      2489.1361      2397.0337      8715.1088      0             -9625.8219      0              0             -304.02428      191184.39      57.608178      57.608178      57.608178      0.94484901     1185.425       140.56747      1320.0519    
    497400   994800         299.04534      1281.5002      14695.808      11135.889      7165.9434      3969.9453      2481.9045      2387.4037      8684.4773      0             -9583.8402      0              0             -305.1512       190478.34      57.537175      57.537175      57.537175      0.94835127     1517.0087      1597.8011      729.69083    
    497500   995000         301.43956      881.8659       13708.632      11252.869      7223.3155      4029.554       2475.9742      2374.931       8788.2921      0             -9609.6434      0              0             -304.4057       190944.83      57.584107      57.584107      57.584107      0.94603439     1101.3903      1229.2171      314.99025    
    497600   995200         301.44037      1559.802       15517.855      11163.589      7223.3347      3940.2545      2476.2014      2330.9834      8735.8025      0             -9602.7327      0              0             -303.66249      191412.17      57.631047      57.631047      57.631047      0.94372464     1780.8133      1260.4665      1638.1262    
    497700   995400         303.06813      743.58676      13435.78       11360.807      7262.3404      4098.4667      2535.3612      2387.9127      8730.4433      0             -9555.2505      0              0             -303.7776       191339.64      57.623767      57.623767      57.623767      0.94408238     607.92339      1098.3783      524.45856    
    497800   995600         295.74177      814.16655      13438.503      11165.672      7086.7809      4078.891       2476.7413      2387.8982      8785.3533      0             -9571.1018      0              0             -303.65661      191415.87      57.631419      57.631419      57.631419      0.94370638     947.58258      1309.0239      185.89316    
    497900   995800         299.06291      937.37948      13793.311      11180.245      7166.3644      4013.8806      2433.9165      2407.2363      8759.6378      0             -9586.91        0              0             -304.0896       191143.31      57.604052      57.604052      57.604052      0.94505204     959.27081      903.62835      949.23928    
    498000   996000         300.29072      1453.392       15348.799      11309.982      7195.786       4114.1956      2440.9182      2445.6502      8793.6292      0             -9566.002       0              0             -305.04582      190544.14      57.543799      57.543799      57.543799      0.94802378     1599.3369      1835.8755      924.96362    
    498100   996200         295.81064      1149.435       14254.679      11047.519      7088.4312      3959.088       2398.8407      2391.5921      8769.2694      0             -9600.6142      0              0             -303.80878      191320         57.621796      57.621796      57.621796      0.94417928     1422.9678      812.76448      1212.5725    
    498200   996400         302.08488      1065.7512      14184.332      11219.747      7238.779       3980.9681      2422.0965      2389.9592      8770.5425      0             -9601.6301      0              0             -304.73927      190735.82      57.563088      57.563088      57.563088      0.94707109     1223.9118      1143.7658      829.57588    
    498300   996600         302.03705      1379.0132      15140.381      11307.075      7237.6329      4069.4419      2468.8845      2459.7165      8763.3315      0             -9622.4905      0              0             -304.95204      190602.74      57.549698      57.549698      57.549698      0.94773231     1291.4594      1196.548       1649.0324    
    498400   996800         296.81887      1058.4368      14202.539      11250.142      7112.5911      4137.5507      2506.7236      2399.679       8821.2571      0             -9590.109       0              0             -303.89725      191264.3       57.616204      57.616204      57.616204      0.94445422     506.79417      1342.4302      1326.086     
    498500   997000         295.86321      1167.526       14362.82       11116.557      7089.6908      4026.8665      2465.3293      2440.7737      8725.1742      0             -9604.4107      0              0             -304.87334      190651.94      57.554649      57.554649      57.554649      0.94748773     1050.4189      994.81122      1457.3478    
    498600   997200         302.19908      1097.6655      14346.389      11296.822      7241.5156      4055.3064      2459.3336      2382.858       8762.8288      0             -9549.714       0              0             -305.11842      190498.8       57.539235      57.539235      57.539235      0.94824941     934.98969      1167.7933      1190.2135    
    498700   997400         301.17598      1309.4662      14764.675      11114.896      7216.9994      3897.8968      2434.7593      2342.2829      8720.6797      0             -9599.8251      0              0             -304.13356      191115.69      57.601277      57.601277      57.601277      0.94518864     1439.6359      1080.3495      1408.4131    
    498800   997600         296.61438      746.4939       13209.156      11127.326      7107.6909      4019.635       2441.7493      2396.4736      8725.2742      0             -9543.8622      0              0             -303.96074      191224.35      57.612192      57.612192      57.612192      0.94465154     623.20658      670.03347      946.24166    
    498900   997800         303.41966      961.74608      13955.694      11271.005      7270.764       4000.2411      2466.0021      2400.9468      8712.4466      0             -9579.1544      0              0             -303.67078      191406.94      57.630523      57.630523      57.630523      0.94375042     788.7267       1021.7216      1074.79      
    499000   998000         297.94613      726.23458      13143.464      11127.949      7139.6032      3988.346       2435.8495      2376.1614      8710.9585      0             -9534.6234      0              0             -305.44109      190297.56      57.518967      57.518967      57.518967      0.94925219     488.88112      807.41814      882.40449    
    499100   998200         303.23831      697.51812      13321.857      11377.367      7266.4183      4110.949       2538.4926      2418.4602      8728.507       0             -9574.5107      0              0             -304.07906      191149.94      57.604718      57.604718      57.604718      0.94501927    -68.172332      1215.6528      945.07391    
    499200   998400         302.1558       1469.4364      15331.637      11225.209      7240.4784      3984.7304      2437.2695      2419.3497      8720.9813      0             -9592.8702      0              0             -303.33543      191618.55      57.651753      57.651753      57.651753      0.9427082      1646.7317      1516.7374      1244.8402    
    499300   998600         299.49378      582.31071      12769.026      11148.497      7176.6891      3971.8074      2453.3749      2444.7169      8684.0994      0             -9610.3838      0              0             -304.60325      190821         57.571656      57.571656      57.571656      0.94664834     761.25673      603.71403      381.96137    
    499400   998800         303.02823      888.62574      13804.741      11344.385      7261.3844      4083.0006      2546.2365      2429.062       8765.2697      0             -9657.5677      0              0             -306.16642      189846.73      57.473508      57.473508      57.473508      0.95150639     1041.4582      949.30254      675.11647    
    499500   999000         299.7691       1044.4798      14081.116      11182.083      7183.2867      3998.7961      2476.6314      2416.9784      8714.3918      0             -9609.2056      0              0             -305.41009      190316.88      57.520913      57.520913      57.520913      0.94915586     1413.9191      928.67199      790.84835    
    499600   999200         294.85422      923.00339      13698.87       11137.217      7065.5125      4071.7049      2434.9815      2468.8258      8774.4725      0             -9606.5749      0              0             -305.43554      190301.02      57.519315      57.519315      57.519315      0.94923495     948.99902      591.99964      1228.0115    
    499700   999400         303.82239      646.72905      13034.713      11239.258      7280.4146      3958.8433      2438.0881      2383.5739      8719.7051      0             -9582.5238      0              0             -305.34053      190360.23      57.52528       57.52528       57.52528       0.94893968     912.99872      731.12314      296.0653     
    499800   999600         302.5849       1199.6309      14616.423      11272.447      7250.7608      4021.6863      2400.2104      2397.2942      8813.513       0             -9589.3313      0              0             -304.10328      191134.72      57.603189      57.603189      57.603189      0.94509454     1481.9439      1254.4511      862.49763    
    499900   999800         303.84244      661.63211      13202.103      11355.841      7280.895       4074.9456      2501.6221      2407.2651      8702.192       0             -9536.1337      0              0             -303.78032      191337.92      57.623595      57.623595      57.623595      0.94409084     927.3313       171.10684      886.45819    
    500000   1000000        300.20263      913.33151      13663.899      11115.379      7193.6753      3921.7042      2451.0653      2360.7735      8688.8055      0             -9578.9401      0              0             -303.79247      191330.27      57.622827      57.622827      57.622827      0.94412859     1651.8967      454.96745      633.13041    
Loop time of 983.794 on 1 procs for 500000 steps with 8040 atoms

Performance: 87.823 ns/day, 0.273 hours/ns, 508.237 timesteps/s, 4.086 Matom-step/s
99.5% CPU use with 1 MPI tasks x 1 OpenMP threads

MPI task timing breakdown:
Section |  min time  |  avg time  |  max time  |%varavg| %total
---------------------------------------------------------------
Pair    | 192.03     | 192.03     | 192.03     |   0.0 | 19.52
Bond    | 621.76     | 621.76     | 621.76     |   0.0 | 63.20
Neigh   | 0.28684    | 0.28684    | 0.28684    |   0.0 |  0.03
Comm    | 56.195     | 56.195     | 56.195     |   0.0 |  5.71
Output  | 8.9154     | 8.9154     | 8.9154     |   0.0 |  0.91
Modify  | 80.69      | 80.69      | 80.69      |   0.0 |  8.20
Other   |            | 23.92      |            |       |  2.43

Nlocal:           8040 ave        8040 max        8040 min
Histogram: 1 0 0 0 0 0 0 0 0 0
Nghost:          22339 ave       22339 max       22339 min
Histogram: 1 0 0 0 0 0 0 0 0 0
Neighs:              0 ave           0 max           0 min
Histogram: 1 0 0 0 0 0 0 0 0 0

Total # of neighbors = 0
Ave neighs/atom = 0
Ave special neighs/atom = 5.9701493
Neighbor list builds = 13426
Dangerous builds = 0

# --- Cleanup ---
unfix npt_fix

undump dump_npt

# --- Write Output ---
write_dump all custom /home/arz2/PolyJarvis/data/cis-PBD2/lammps/mechanical/bm_series/bm_P1000/bm_P1000_last.dump id type mol x y z xu yu zu vx vy vz modify sort id
write_data /home/arz2/PolyJarvis/data/cis-PBD2/lammps/mechanical/bm_series/bm_P1000/bm_P1000_out.data
System init for write_data ...
Generated 3 of 3 mixed pair_coeff terms from arithmetic mixing rule

print "STAGE COMPLETE: NPT T=300.0->300.0K P=1000.0->1000.0atm steps=500000"
STAGE COMPLETE: NPT T=300.0->300.0K P=1000.0->1000.0atm steps=500000
quit
