units real
atom_style full
boundary p p p

# --- Force Field Styles ---
pair_style lj/cut 14.0
dielectric 1.000000
bond_style harmonic
angle_style harmonic
dihedral_style multi/harmonic
improper_style none
special_bonds lj 0 0 0
pair_modify mix arithmetic tail yes
neighbor 2.0 bin
neigh_modify delay 0 every 1 check yes
neigh_modify one 4000
# KOKKOS: package loaded via -pk kokkos on the command line

read_data /home/arz2/PolyJarvis/data/PE3/lammps/npt_cool_melt/npt_cool_melt_out.data
Reading data file ...
  orthogonal box = (1.0493562 1.0493562 1.0493562) to (54.729016 54.729016 54.729016)
  2 by 2 by 2 MPI processor grid
  reading atoms ...
  4840 atoms
  reading velocities ...
  4840 velocities
  scanning bonds ...
  2 = max bonds/atom
  scanning angles ...
  1 = max angles/atom
  scanning dihedrals ...
  2 = max dihedrals/atom
  orthogonal box = (1.0493562 1.0493562 1.0493562) to (54.729016 54.729016 54.729016)
  2 by 2 by 2 MPI processor grid
  reading bonds ...
  4820 bonds
  reading angles ...
  4800 angles
  reading dihedrals ...
  4780 dihedrals
Finding 1-2 1-3 1-4 neighbors ...
  special bond factors lj:    0        0        0       
  special bond factors coul:  0        0        0       
     2 = max # of 1-2 neighbors
     2 = max # of 1-3 neighbors
     4 = max # of 1-4 neighbors
     6 = max # of special neighbors
  special bonds CPU = 0.000 seconds
  read_data CPU = 0.091 seconds
include /home/arz2/PolyJarvis/data/PE3/lammps/cell/emc_build.params
# LAMMPS parameters created by EMC v9.4.4, build Jul 31 2025 20:33:44

# Variables

variable	seed		index	1007
variable	ntotal		index	4840
variable	fshape		index	1
variable	output		index	emc_build
variable	field		index	trappe/2014/trappe-ua
variable	location1	index	/home/arz2/emc/field/
variable	nav		index	0.6022141179
variable	temperature	index	300
variable	radius		index	5
variable	nrelax		index	100
variable	weight_nonbond	index	0.0001
variable	weight_bond	index	0.0001
variable	weight_focus	index	1
variable	cutoff		index	14
variable	charge_cutoff	index	14
variable	kappa		index	4
variable	density1	index	0.65
variable	lprevious	index	0
variable	lphase		index	55.7783720511
variable	f_poly		index	20
variable	chem_repeat	index	*CC*
variable	chem_cap	index	*C
variable	lg_repeat	index	2
variable	lg_cap		index	1
variable	norm_poly	index	100
variable	l_poly		index	242
variable	mg_repeat	index	28.0536
variable	mg_cap		index	15.0347
variable	m_poly		index	3396.5014
variable	n_poly		index	20
variable	mtotal		index	67930.028
variable	nphase1		index	4840
variable	mphase1		index	67930.028
variable	vphase1		index	173539.165354
variable	lbox		index	55.7783720511
variable	lphase1		index	55.7783720511
variable	lxx		index	55.7783720511
variable	lyy		index	55.7783720511
variable	lzz		index	55.7783720511
variable	lzy		index	0
variable	lzx		index	0
variable	lyx		index	0
variable	vtotal		index	173539.165354
variable	nl_poly		index	20

# Types

variable	type_c4h2	index	1
variable	type_c4h3	index	2

variable	type_bond_c4h2_c4h2 index	1
variable	type_bond_c4h2_c4h3 index	2

variable	type_angle_c4h2_c4h2_c4h2 index	1
variable	type_angle_c4h2_c4h2_c4h3 index	2

# Clusters

variable	n0_poly		index	1
variable	n1_poly		index	20
variable	nl_poly		index	20

# Flags

variable	flag_charged	index	0

# Masses

mass		1    14.02680  # c4h2
mass		2    15.03470  # c4h3

# Potentials

pair_modify	mix arithmetic tail yes
special_bonds	lj 0 0 0 coul 0 0 0.5
Finding 1-2 1-3 1-4 neighbors ...
  special bond factors lj:    0        0        0       
  special bond factors coul:  0        0        0.5     
     2 = max # of 1-2 neighbors
     2 = max # of 1-3 neighbors
     4 = max # of 1-4 neighbors
     6 = max # of special neighbors
  special bonds CPU = 0.000 seconds

# Pair Coeffs

pair_coeff	1 1    0.09141    3.95000  # c4h2,c4h2
pair_coeff	2 2    0.19475    3.75000  # c4h3,c4h3

# Bond Coeffs

bond_coeff	1  260.00013    1.54000  # c4h2,c4h2
bond_coeff	2  260.00013    1.54000  # c4h2,c4h3

# Angle Coeffs

angle_coeff	1   62.10020  114.00000  # c4h2,c4h2,c4h2
angle_coeff	2   62.10020  114.00000  # c4h2,c4h2,c4h3

# Dihedral Coeffs

dihedral_coeff	1    2.00702   -4.01203    0.27102    6.29006    0.00000  # c4h2,c4h2,c4h2,c4h2
dihedral_coeff	2    2.00702   -4.01203    0.27102    6.29006    0.00000  # c4h2,c4h2,c4h2,c4h3


# --- Thermo Output ---
thermo_style custom step time temp press enthalpy etotal ke pe ebond eangle edihed eimp evdwl ecoul elong etail vol lx ly lz density pxx pyy pzz
thermo_modify flush yes
thermo 1000

# --- Trajectory ---
dump dump_npt all custom 1000 npt_melt.dump id type mol x y z ix iy iz vx vy vz

# --- Restart Checkpointing ---
restart 10000 npt_1.rst npt_2.rst

# --- Initial Velocities (optional) ---
# Velocities read from data file

# --- SHAKE Constraints ---
# SHAKE disabled (TraPPE-UA united-atom)

# --- NPT Thermostat + Barostat (Nose-Hoover) ---
# T_damp = 100.0 fs  (heat bath coupling)
# P_damp = 1000.0 fs  (pressure bath coupling, ~10x T_damp typical)
# Ramp: T=550.0->550.0K  P=1.0->1.0atm
timestep 2.0
fix npt_fix all npt temp 550.0 550.0 100.0 iso 1.0 1.0 1000.0

run 500000
Generated 1 of 1 mixed pair_coeff terms from arithmetic mixing rule
Neighbor list info ...
  update: every = 1 steps, delay = 0 steps, check = yes
  max neighbors/atom: 4000, page size: 100000
  master list distance cutoff = 16
  ghost atom cutoff = 16
  binsize = 8, bins = 7 7 7
  1 neighbor lists, perpetual/occasional/extra = 1 0 0
  (1) pair lj/cut, perpetual
      attributes: half, newton on
      pair build: half/bin/newton
      stencil: half/bin/3d
      bin: standard
Per MPI rank memory allocation (min/avg/max) = 8.262 | 8.265 | 8.267 Mbytes
   Step          Time           Temp          Press         Enthalpy        TotEng         KinEng         PotEng         E_bond        E_angle        E_dihed        E_impro         E_vdwl         E_coul         E_long         E_tail         Volume           Lx             Ly             Lz          Density          Pxx            Pyy            Pzz      
         0   0              538.01738      177.5953       13647.971      13247.348      7760.4378      5486.9099      2606.9282      2673.9541      4578.8881      0             -4372.8606      0              0             -161.17682      154678.25      53.67966       53.67966       53.67966       0.72925866    -664.36801      241.27757      955.87634    
      1000   2000           553.30704     -144.44229      13267.113      13601.343      7980.9781      5620.3645      2608.9394      2706.8258      4576.7809      0             -4272.1816      0              0             -157.1295       158662.44      54.136649      54.136649      54.136649      0.7109462     -283.17971     -106.26        -43.887151    
      2000   4000           556.10785      247.93303      14176.387      13614.3        8021.3774      5592.9228      2659.0512      2619.9028      4651.172       0             -4337.2033      0              0             -160.37578      155450.84      53.768884      53.768884      53.768884      0.72563426     35.277669     -17.909203      726.43063    
      3000   6000           545.78113      198.02026      13773.616      13320.279      7872.4233      5447.8554      2647.1096      2600.6152      4536.1264      0             -4335.9959      0              0             -158.81655      156977.02      53.944275      53.944275      53.944275      0.71857942     697.02155     -498.02456      395.0638     
      4000   8000           546.52086      299.47057      14227.599      13543.039      7883.0933      5659.9453      2671.1028      2669.7769      4621.6713      0             -4302.6057      0              0             -159.05597      156740.73      53.917195      53.917195      53.917195      0.71966268     82.508874      886.24028     -70.337437    
      5000   10000          548.76519     -693.30967      11884.955      13491.661      7915.4658      5576.1955      2675.6031      2584.585       4591.2044      0             -4275.197       0              0             -156.89115      158903.48      54.164051      54.164051      54.164051      0.70986775    -846.97393     -90.295877     -1142.6592    
      6000   12000          561.57385      430.08798      14655.617      13679.623      8100.2197      5579.4033      2663.538       2714.1153      4568.7297      0             -4366.9797      0              0             -160.22042      155601.57      53.786258      53.786258      53.786258      0.72493132     859.22525     -96.131983      527.17068    
      7000   14000          551.95431      391.07462      14142.245      13247.995      7961.4662      5286.5288      2607.0253      2457.5433      4559.4156      0             -4337.4554      0              0             -159.00408      156791.89      53.92306       53.92306       53.92306       0.71942788     218.91587      231.33778      722.97019    
      8000   16000          553.4514      -387.20629      12804.058      13706.222      7983.0604      5723.1616      2721.0007      2640.7203      4646.2953      0             -4284.8547      0              0             -156.05037      159759.63      54.261153      54.261153      54.261153      0.70606357    -31.484543     -460.20876     -669.92555    
      9000   18000          554.38339      19.233878      13688.908      13645.147      7996.5035      5648.6431      2680.3112      2697.336       4631.3633      0             -4360.3674      0              0             -159.80216      156008.84      53.833143      53.833143      53.833143      0.72303888     169.17084     -225.16768      113.69848    
     10000   20000          542.49741     -100.10132      13156.853      13384.287      7825.0585      5559.2281      2661.7169      2616.9124      4615.3725      0             -4334.7737      0              0             -160.02661      155790.03      53.807963      53.807963      53.807963      0.7240544     -39.782473     -62.057433     -198.46404    
     11000   22000          556.66875      588.32334      15133.802      13757.753      8029.4678      5728.2857      2772.864       2574.4102      4610.3406      0             -4229.3291      0              0             -155.44979      160376.86      54.330942      54.330942      54.330942      0.7033462      390.69355      1073.4583      300.81819    
     12000   24000          555.17428      929.77868      15847.941      13715.207      8007.9115      5707.2951      2678.5768      2695.8186      4677.4467      0             -4344.5471      0              0             -158.5078       157282.8       53.979278      53.979278      53.979278      0.71718242     779.14919      1201.7598      808.42707    
     13000   26000          550.47658     -486.73889      12462.265      13579.237      7940.1511      5639.086       2696.0714      2615.7708      4630.45        0             -4303.2062      0              0             -158.43878      157351.3       53.987115      53.987115      53.987115      0.71687016    -334.76258     -810.23302     -315.22106    
     14000   28000          560.77738      294.24066      14398.866      13715.438      8088.7313      5626.707       2627.128       2646.8354      4619.0037      0             -4266.2602      0              0             -156.53723      159262.75      54.20484       54.20484       54.20484       0.70826641     334.88155     -58.419597      606.26004    
     15000   30000          545.0154      -792.3361       11752.776      13588.08       7861.3783      5726.7019      2745.0904      2595.1077      4661.4748      0             -4274.9709      0              0             -156.96731      158826.38      54.155289      54.155289      54.155289      0.71021234    -1176.6797     -23.523054     -1176.8056    
     16000   32000          540.31943      408.99817      14417.458      13465.231      7793.643       5671.5876      2709.4178      2571.3209      4611.0135      0             -4220.1645      0              0             -156.16665      159640.67      54.247682      54.247682      54.247682      0.7065897      783.48015      120.85556      322.65882    
     17000   34000          550.51366      132.16752      13982.93       13680.203      7940.6861      5739.5166      2737.0564      2638.3099      4684.2276      0             -4320.0773      0              0             -158.73816      157054.55      53.953154      53.953154      53.953154      0.7182247      16.663083      556.59136     -176.7519     
     18000   36000          541.26757      117.13736      13684.034      13415.31       7807.3192      5607.9912      2674.2392      2546.1574      4671.7922      0             -4284.1976      0              0             -158.48848      157301.96      53.981471      53.981471      53.981471      0.71709504     763.12141     -220.38127     -191.32807    
     19000   38000          551.29914      144.51119      13996.464      13665.845      7952.0158      5713.8292      2656.0419      2725.8969      4666.0758      0             -4334.1854      0              0             -158.92106      156873.8       53.932448      53.932448      53.932448      0.71905224     762.83715     -157.15962     -172.14395    
     20000   40000          549.26854      577.17238      15014.048      13710.525      7922.7262      5787.799       2725.1138      2694.4557      4734.9323      0             -4366.7029      0              0             -160.98845      154859.24      53.700588      53.700588      53.700588      0.72840636     524.84938      594.95458      611.71319    
     21000   42000          551.82027     -486.7435       12472.615      13603.035      7959.5328      5643.502       2637.5521      2639.6255      4588.5791      0             -4222.2547      0              0             -156.55539      159244.28      54.202745      54.202745      54.202745      0.70834857    -330.23603     -627.29306     -502.7014     
     22000   44000          545.00972     -150.09572      13366.904      13715.26       7861.2965      5853.9631      2735.9732      2605.0087      4762.2249      0             -4249.2438      0              0             -156.6584       159139.57      54.190862      54.190862      54.190862      0.70881464     69.451529      182.53203     -702.27071    
     23000   46000          546.38769      594.76848      15102.969      13733.006      7881.1724      5851.8339      2648.112       2716.0001      4714.394       0             -4226.6722      0              0             -157.8508       157937.42      54.054064      54.054064      54.054064      0.7142098      1196.7429      220.83858      366.72394    
     24000   48000          553.64949     -32.015443      13697.683      13771.441      7985.9176      5785.5238      2699.3555      2692.4734      4707.0743      0             -4313.3794      0              0             -157.81715      157971.11      54.057906      54.057906      54.057906      0.71405751     8.7273821      99.590154     -204.36387    
     25000   50000          551.24702      606.6134       14902.503      13502.026      7951.2642      5550.7615      2569.3209      2548.0707      4718.6583      0             -4285.2883      0              0             -157.48661      158302.66      54.0957        54.0957        54.0957        0.71256195     404.69848      1008.7301      406.41159    
     26000   52000          546.60568      320.00085      14315.928      13588.663      7884.3168      5704.3459      2654.1024      2660.525       4705.5164      0             -4315.7979      0              0             -159.98015      155835.27      53.813171      53.813171      53.813171      0.72384421     314.20243      535.67375      110.12637    
     27000   54000          553.26578      87.081288      13772.817      13574.436      7980.383       5594.0527      2631.8029      2662.4902      4683.9912      0             -4384.2315      0              0             -159.5995       156206.94      53.855919      53.855919      53.855919      0.72212191    -461.98614      270.91672      452.31328    
     28000   56000          553.11502     -416.88594      12614.903      13570.412      7978.2084      5592.2039      2661.4946      2649.9985      4591.5977      0             -4310.8868      0              0             -158.63176      157159.89      53.965214      53.965214      53.965214      0.7177433     -984.33803     -135.8173      -130.50248    
     29000   58000          546.60461      186.92761      14071.974      13644.275      7884.3013      5759.9739      2730.962       2702.9078      4613.6196      0             -4287.5155      0              0             -158.90689      156887.78      53.934051      53.934051      53.934051      0.71898813    -70.415762      28.534002      602.6646     
     30000   60000          550.48491     -230.9574       13005.656      13545.725      7940.2714      5605.4535      2667.493       2576.0321      4658.1435      0             -4296.2151      0              0             -155.48582      160339.69      54.326745      54.326745      54.326745      0.70350923     80.181428      53.79316      -826.84678    
     31000   62000          544.89088      640.89498      15065.034      13600.265      7859.5822      5740.6829      2736.4897      2801.3608      4526.6489      0             -4323.8165      0              0             -159.08368      156713.43      53.914065      53.914065      53.914065      0.71978803     1398.8967      670.42924     -146.64098    
     32000   64000          554.93804     -533.23181      12458.348      13673.026      8004.5038      5668.5226      2709.035       2681.2701      4626.5474      0             -4348.3298      0              0             -159.61082      156195.86      53.854646      53.854646      53.854646      0.72217314    -1065.4685     -34.646083     -499.58081    
     33000   66000          556.48307      2.5937125      13781.349      13775.409      8026.7897      5748.6194      2744.2681      2611.7309      4701.344       0             -4308.7237      0              0             -158.76709      157025.93      53.949876      53.949876      53.949876      0.71835562     387.27899     -64.491973     -315.00588    
     34000   68000          546.09684      884.27377      15536.562      13494.327      7876.9773      5617.3494      2636.4324      2732.6742      4549.1194      0             -4300.8766      0              0             -157.4304       158359.18      54.102137      54.102137      54.102137      0.71230764     1369.0024      325.09067      958.72823    
     35000   70000          553.60695      463.85538      14492.597      13429.744      7985.3041      5444.4398      2683.9467      2606.4108      4515.1809      0             -4361.0986      0              0             -158.67809      157114         53.959961      53.959961      53.959961      0.71795292     250.6276       757.058        383.88053    
     36000   72000          552.44366      291.63326      14184.708      13516.199      7968.5246      5547.674       2711.067       2560.7444      4571.7061      0             -4295.8436      0              0             -158.61255      157178.92      53.967392      53.967392      53.967392      0.71765639     1077.0903     -111.7926      -90.397949    
     37000   74000          548.64249      189.7778       13916.605      13484.203      7913.696       5570.5073      2588.0936      2670.8204      4640.1934      0             -4328.6001      0              0             -159.57515      156230.77      53.858658      53.858658      53.858658      0.72201175    -140.98349     -472.4297       1182.7466    
     38000   76000          547.35295     -327.32157      12776.535      13539.057      7895.0955      5643.9616      2670.5709      2630.974       4586.343       0             -4243.9263      0              0             -156.07386      159735.58      54.25843       54.25843       54.25843       0.70616986    -148.89404      59.827142     -892.89782    
     39000   78000          552.92875      219.47134      14077.279      13577.36       7975.5216      5601.8388      2679.5061      2619.3924      4601.1998      0             -4298.2594      0              0             -159.61969      156187.18      53.853648      53.853648      53.853648      0.72221326     1074.646      -254.13151     -162.10044    
     40000   80000          550.07423     -515.01548      12423.147      13598.618      7934.3477      5664.2703      2686.0069      2576.8553      4712.7158      0             -4311.3078      0              0             -159.30011      156500.52      53.889637      53.889637      53.889637      0.72076731    -1387.0803      131.27384     -289.24       
     41000   82000          551.37992     -238.59514      12916.427      13472.647      7953.1811      5519.4657      2617.1988      2562.1288      4626.7368      0             -4286.5986      0              0             -155.96352      159848.59      54.271223      54.271223      54.271223      0.70567062    -602.50199     -210.62672      97.343308    
     42000   84000          543.59164     -352.37526      12540.288      13345.558      7840.8419      5504.7162      2613.5337      2598.7817      4653.6043      0             -4361.2035      0              0             -159.10043      156696.93      53.912172      53.912172      53.912172      0.71986384    -32.416131     -704.81203     -319.89763    
     43000   86000          544.16998      394.34081      14421.625      13521.265      7849.1839      5672.081       2661.521       2667.6213      4632.9801      0             -4290.0413      0              0             -159.24399      156555.67      53.895967      53.895967      53.895967      0.72051338     419.55841      70.984578      692.47944    
     44000   88000          542.91824     -359.3747       12538.307      13367.232      7831.1286      5536.103       2660.5525      2614.571       4580.1605      0             -4319.181       0              0             -157.63047      158158.19      54.079238      54.079238      54.079238      0.71321286    -637.62242     -298.54373     -141.95793    
     45000   90000          547.34591      265.03455      14070.92       13462.241      7894.994       5567.2466      2734.056       2597.0611      4529.8722      0             -4293.7426      0              0             -158.31494      157474.4       54.001188      54.001188      54.001188      0.71630981     605.30526     -11.629606      201.428      
     46000   92000          559.03389     -269.55578      12988.385      13610.476      8063.583       5546.893       2694.5294      2587.6298      4553.4045      0             -4288.6706      0              0             -157.54413      158244.87      54.089115      54.089115      54.089115      0.71282221    -156.42645     -156.93573     -495.30515    
     47000   94000          550.78787      106.4049       13783.613      13541.592      7944.6413      5596.9511      2745.87        2600.5174      4632.0575      0             -4381.4938      0              0             -159.85168      155960.51      53.827584      53.827584      53.827584      0.72326291     159.17313     -242.19033      402.23192    
     48000   96000          545.90899      375.44674      14279.994      13434.543      7874.2676      5560.2758      2681.3172      2655.7144      4618.1565      0             -4394.9122      0              0             -161.46105      154405.97      53.648143      53.648143      53.648143      0.73054467    -149.42994      774.22396      501.54619    
     49000   98000          546.66492      332.74742      14216.156      13459.117      7885.1713      5573.9457      2758.2669      2516.0271      4643.2713      0             -4343.6195      0              0             -159.81013      156001.06      53.832248      53.832248      53.832248      0.72307494     379.79488      592.38358      26.063806    
     50000   100000         563.50908      77.469242      13996.615      13816.147      8128.1337      5688.0134      2667.5603      2686.571       4546.9874      0             -4213.1053      0              0             -156.07656      159732.83      54.258118      54.258118      54.258118      0.70618206     31.81861      -78.177249      278.76637    
     51000   102000         552.63011      474.52003      14621.073      13514.985      7971.2139      5543.7713      2628.733       2563.3266      4614.6474      0             -4262.9357      0              0             -155.98135      159830.32      54.269154      54.269154      54.269154      0.70575131     967.73459      813.78235     -357.95686    
     52000   104000         556.76473      245.04019      14166.136      13596.811      8030.8524      5565.959       2611.3704      2598.2825      4620.1861      0             -4263.8801      0              0             -156.48947      159311.35      54.210354      54.210354      54.210354      0.70805032     563.60509     -180.92079      352.43625    
     53000   106000         553.74992     -26.927962      13614.435      13676.439      7987.3663      5689.0723      2666.4614      2623.5246      4663.3451      0             -4264.2588      0              0             -157.90476      157883.46      54.047907      54.047907      54.047907      0.71445391    -786.79839      590.76873      115.24577    
     54000   108000         534.70247     -258.66558      12629.463      13224.059      7712.6232      5511.4358      2628.7832      2632.6004      4593.3018      0             -4343.2496      0              0             -158.17009      157618.61      54.017668      54.017668      54.017668      0.71565442    -539.65983     -72.377629     -163.95927    
     55000   110000         542.67652      333.51053      14196.268      13437.966      7827.6421      5610.3243      2742.9635      2590.499       4659.6855      0             -4382.8237      0              0             -159.90987      155903.76      53.821053      53.821053      53.821053      0.72352622     1034.7887      209.44915     -243.70626    
     56000   112000         547.0485      -240.01114      13124.876      13676.971      7890.704       5786.2667      2693.5819      2667.1055      4736.2787      0             -4310.6994      0              0             -158.06134      157727.06      54.030054      54.030054      54.030054      0.71516236    -326.70021     -125.32924     -268.00398    
     57000   114000         570.85376      250.70679      14278.382      13706.073      8234.0745      5471.9982      2623.0133      2565.8546      4623.3229      0             -4340.1925      0              0             -159.27329      156526.87      53.892661      53.892661      53.892661      0.72064598     850.95036      405.16347     -503.99345    
     58000   116000         543.4084       430.67031      14461.757      13479.533      7838.1988      5641.3345      2622.8102      2662.6327      4674.5907      0             -4318.6991      0              0             -159.41986      156382.96      53.87614       53.87614       53.87614       0.72130912     148.28304      573.07251      570.65539    
     59000   118000         537.45978     -243.18913      12908.084      13456.538      7752.3951      5704.1427      2757.3719      2671.2906      4641.0784      0             -4365.5982      0              0             -161.21731      154639.41      53.675166      53.675166      53.675166      0.72944183    -297.60574     -271.36813     -160.59352    
     60000   120000         557.60678      70.8998        13893.076      13732.039      8042.9982      5689.0407      2677.1777      2696.1104      4657.0626      0             -4341.3101      0              0             -160.076        155741.96      53.802428      53.802428      53.802428      0.72427787     463.38983     -215.00833     -35.682105    
     61000   122000         542.40347     -164.9729       13081.185      13459.867      7823.7035      5636.1632      2704.6132      2549.9376      4652.2652      0             -4270.6527      0              0             -158.3968       157393.01      53.991884      53.991884      53.991884      0.71668022    -363.63838     -291.23685      159.95654    
     62000   124000         549.53729      520.14524      14473.814      13289.327      7926.6027      5362.7242      2616.236       2557.5106      4560.629       0             -4371.6514      0              0             -159.66214      156145.65      53.848875      53.848875      53.848875      0.72240536     246.18781      899.58765      414.66027    
     63000   126000         554.67945     -320.18915      12690.484      13419.904      8000.7739      5419.1299      2615.0105      2576.329       4572.5227      0             -4344.7323      0              0             -159.60155      156204.94      53.855689      53.855689      53.855689      0.72213119    -504.2865       586.69028     -1042.9712    
     64000   128000         550.46202      582.73308      14990.317      13651.007      7939.9412      5711.0656      2659.0239      2674.293       4688.4953      0             -4310.7466      0              0             -158.1963       157592.5       54.014685      54.014685      54.014685      0.71577301     713.05263      661.89451      373.2521     
     65000   130000         556.19429      478.94075      14609.443      13519.248      8022.6242      5496.6235      2677.8379      2618.8516      4556.9646      0             -4357.0305      0              0             -159.72956      156079.75      53.841298      53.841298      53.841298      0.72271039     180.31193      499.33139      757.17892    
     66000   132000         554.41713      24.658327      13718.09       13662.288      7996.9902      5665.2974      2717.0216      2666.2636      4660.98        0             -4378.9678      0              0             -160.66542      155170.6       53.736554      53.736554      53.736554      0.72694476    -238.35869      90.938651      221.39501    
     67000   134000         544.76194      1219.6687      16250.154      13490.233      7857.7224      5632.5109      2624.6537      2713.2507      4622.2815      0             -4327.675       0              0             -160.67675      155159.66      53.735291      53.735291      53.735291      0.72699602     1129.5228      967.7245       1561.7587    
     68000   136000         548.05525     -684.36158      11922.816      13502.022      7905.2256      5596.7969      2564.2362      2662.9062      4697.2668      0             -4327.6123      0              0             -157.56305      158225.87      54.08695       54.08695       54.08695       0.71290781    -482.83759     -558.33223     -1011.9149    
     69000   138000         546.54716      291.83093      14280.094      13609.356      7883.4726      5725.8838      2649.0598      2662.7533      4715.6086      0             -4301.5379      0              0             -158.19267      157596.11      54.015097      54.015097      54.015097      0.71575661     257.75986      935.29069     -317.55776    
     70000   140000         555.83277     -316.29569      12974.193      13695.812      8017.4096      5678.4023      2724.2556      2622.0705      4637.3972      0             -4305.321       0              0             -159.36516      156436.64      53.882304      53.882304      53.882304      0.72106162    -761.05544     -197.18906      9.3574189    
     71000   142000         544.13062     -196.89818      12923.191      13372.438      7848.6162      5523.8214      2665.5957      2612.8476      4603.8033      0             -4358.4251      0              0             -159.35474      156446.86      53.883478      53.883478      53.883478      0.7210145     -463.26188     -10.490811     -116.94185    
     72000   144000         553.07982     -327.01777      12699.626      13454.353      7977.7007      5476.6519      2591.7284      2546.7372      4657.4507      0             -4319.2644      0              0             -157.53956      158249.45      54.089638      54.089638      54.089638      0.71280156    -430.87039      38.726474     -588.9094     
     73000   146000         556.40035      182.62441      13950.537      13529.297      8025.5965      5503.7002      2563.6528      2705.3121      4566.7887      0             -4332.0534      0              0             -157.62916      158159.51      54.079388      54.079388      54.079388      0.71320693    -30.550644      265.47974      312.94413    
     74000   148000         561.24026     -73.143708      13545.197      13712.545      8095.408       5617.1374      2714.3221      2582.7316      4662.4721      0             -4342.3883      0              0             -158.91477      156880         53.933159      53.933159      53.933159      0.71902381     307.767       -574.44423      47.246105    
     75000   150000         558.21172      48.081364      13859.349      13750.437      8051.7239      5698.7135      2750.1156      2661.3389      4643.7972      0             -4356.5382      0              0             -160.51243      155318.49      53.753621      53.753621      53.753621      0.72625257    -142.08226     -786.07132      1072.3977    
     76000   152000         550.77647      104.81343      13771.065      13530.051      7944.4768      5585.5745      2593.0386      2668.0434      4603.6303      0             -4279.1379      0              0             -158.11843      157670.11      54.02355       54.02355       54.02355       0.71542069     523.97394     -261.6318       52.098149    
     77000   154000         540.35673      224.19528      13977.686      13464.492      7794.181       5670.3107      2697.2335      2719.9835      4586.5523      0             -4333.4587      0              0             -158.83717      156956.65      53.941941      53.941941      53.941941      0.71867268     235.57371      228.00144      209.01068    
     78000   156000         537.80228     -250.10869      12921.21       13494.95       7757.3353      5737.6147      2760.9758      2706.5802      4580.7331      0             -4310.6743      0              0             -158.49708      157293.43      53.980495      53.980495      53.980495      0.71713391    -497.01566     -55.539484     -197.77092    
     79000   158000         541.46605      318.18649      14161.756      13442.895      7810.182       5632.7127      2730.5669      2649.8277      4611.9524      0             -4359.6344      0              0             -160.9327       154912.89      53.706789      53.706789      53.706789      0.72815408    -389.82413      400.9688       943.4148     
     80000   160000         541.51848      347.56238      14115.704      13322.908      7810.9383      5511.9695      2642.4911      2615.1095      4603.1389      0             -4348.77        0              0             -159.39647      156405.9       53.878775      53.878775      53.878775      0.72120331     49.66228       740.31492      252.70994    
     81000   162000         554.91723      408.92537      14389.09       13459.437      8004.2037      5455.2329      2660.5535      2577.8686      4592.7137      0             -4375.903       0              0             -159.93032      155883.82      53.81876       53.81876       53.81876       0.72361873     538.06301      819.54301     -130.8299     
     82000   164000         547.25542     -701.22188      11707.164      13317.753      7893.6886      5424.0646      2606.5736      2593.3093      4555.2355      0             -4331.0539      0              0             -158.29913      157490.12      54.002986      54.002986      54.002986      0.7162383     -1023.8249     -649.74882     -430.09193    
     83000   166000         546.15724      382.64079      14357.035      13473.789      7877.8484      5595.9409      2662.557       2555.2546      4634.1207      0             -4255.9915      0              0             -157.51335      158275.79      54.092638      54.092638      54.092638      0.71268294    -82.407526      550.55245      679.77744    
     84000   168000         542.67348      348.41303      14234.757      13432.841      7827.5982      5605.2426      2676.8928      2667.1645      4583.2101      0             -4322.0248      0              0             -157.96941      157818.84      54.040532      54.040532      54.040532      0.71474645     77.698064      514.27566      453.26537    
     85000   170000         551.93445     -317.70867      12766.212      13481.021      7961.1797      5519.8416      2662.2076      2686.4145      4566.0741      0             -4394.8546      0              0             -161.60191      154271.38      53.632551      53.632551      53.632551      0.73118199    -484.25132     -307.79876     -161.07593    
     86000   172000         551.84346     -406.54737      12589.178      13522.564      7959.8672      5562.6972      2658.8885      2579.5352      4676.4612      0             -4352.1877      0              0             -158.36429      157425.33      53.995579      53.995579      53.995579      0.71653309    -301.23794     -547.07908     -371.3251     
     87000   174000         550.56012     -409.00128      12516.559      13442.969      7941.3562      5501.613       2590.9276      2604.1321      4691.7418      0             -4385.1885      0              0             -160.52001      155311.16      53.752775      53.752775      53.752775      0.72628687    -220.86049     -318.87906     -687.2643     
     88000   176000         548.11665     -33.725735      13324.096      13401.783      7906.1112      5495.6718      2644.9054      2610.1448      4568.5869      0             -4327.9652      0              0             -157.84198      157946.26      54.055072      54.055072      54.055072      0.71416985    -267.81928      71.27867       95.363404    
     89000   178000         555.37948     -121.96826      13434.868      13714.183      8010.8712      5703.3118      2731.2661      2703.0652      4614.8355      0             -4345.855       0              0             -158.76694      157026.08      53.949894      53.949894      53.949894      0.71835493     295.20308     -203.64001     -457.46786    
     90000   180000         556.11707      397.35914      14289.371      13387.23       8021.5103      5365.72        2665.341       2558.0266      4510.1694      0             -4367.817       0              0             -160.1463       155673.6       53.794555      53.794555      53.794555      0.72459594     146.28655      573.26924      472.52161    
     91000   182000         546.581       -468.7212       12397.355      13462.659      7883.9608      5578.6985      2715.5412      2576.1667      4637.2924      0             -4350.3017      0              0             -159.97373      155841.53      53.813891      53.813891      53.813891      0.72381514    -418.47544     -767.079       -220.60917    
     92000   184000         555.76321     -189.05494      13244.542      13675.58       8016.4062      5659.1739      2790.4104      2633.5762      4557.5346      0             -4322.3474      0              0             -159.47037      156333.42      53.870451      53.870451      53.870451      0.72153768     190.90617     -509.23521     -248.83577    
     93000   186000         557.67452      60.899775      13724.615      13585.265      8043.9753      5541.2896      2668.4972      2650.2227      4566.3264      0             -4343.7568      0              0             -158.8977       156896.85      53.935091      53.935091      53.935091      0.71894657    -195.34056     -470.79563      848.83551    
     94000   188000         548.67021     -766.55128      11812.214      13563.583      7914.0958      5649.4872      2717.481       2644.9482      4604.7045      0             -4317.6465      0              0             -159.13703      156660.9       53.908039      53.908039      53.908039      0.72002943    -853.85845     -962.44862     -483.34677    
     95000   190000         548.7974      -448.7656       12607.801      13634.068      7915.9304      5718.1374      2745.6551      2571.3302      4734.9384      0             -4333.7864      0              0             -158.98905      156806.71      53.924759      53.924759      53.924759      0.71935987     88.913449     -491.07581     -944.13445    
     96000   192000         552.98441     -50.26012       13363.986      13478.476      7976.3245      5502.1518      2608.5022      2627.5388      4607.2725      0             -4341.1617      0              0             -159.61045      156196.22      53.854687      53.854687      53.854687      0.72217147    -60.016648     -261.87573      171.11202    
     97000   194000         548.13474     -95.650993      13309.03       13526.137      7906.3721      5619.7645      2737.1126      2568.0507      4658.0417      0             -4343.4406      0              0             -160.18627      155634.75      53.79008       53.79008       53.79008       0.72477681     384.90691     -813.56705      141.70716    
     98000   196000         553.6218       414.649        14583.564      13636.744      7985.5183      5651.2255      2622.4459      2697.7641      4692.7253      0             -4361.7098      0              0             -159.22846      156570.94      53.897719      53.897719      53.897719      0.7204431     -496.64029      808.56413      932.02317    
     99000   198000         565.72323      446.15554      14808.383      13772.187      8160.0709      5612.1164      2661.0379      2608.7684      4574.8859      0             -4232.5758      0              0             -156.54967      159250.09      54.203404      54.203404      54.203404      0.7083227      754.24735      433.72482      150.49444    
    100000   200000         550.08643     -142.73943      13302.478      13627.292      7934.5236      5692.768       2751.1304      2579.843       4684.9499      0             -4323.1552      0              0             -159.77804      156032.39      53.835852      53.835852      53.835852      0.72292972     389.45675     -101.22784     -716.44718    
    101000   202000         539.01336      31.686264      13585.345      13514.038      7774.8041      5739.2342      2695.8906      2663.6539      4752.2719      0             -4372.5822      0              0             -161.56633      154305.36      53.636488      53.636488      53.636488      0.73102099     231.47209      150.56675     -286.98004    
    102000   204000         547.48288     -373.38009      12503.775      13362.728      7896.9696      5465.7582      2599.0415      2569.9848      4638.0819      0             -4341.3501      0              0             -158.04813      157740.24      54.031559      54.031559      54.031559      0.71510261    -209.88393     -913.83675      3.5804095    
    103000   206000         550.17972      269.02846      14321.056      13698.174      7935.8693      5762.3052      2720.6638      2672.1052      4640.0095      0             -4270.4733      0              0             -157.03634      158756.57      54.147353      54.147353      54.147353      0.71052466     291.53294      215.94189      299.61055    
    104000   208000         557.10203     -136.79884      13417.239      13731.297      8035.7176      5695.5795      2627.7919      2674.0637      4681.1593      0             -4287.4354      0              0             -158.37282      157416.85      53.99461       53.99461       53.99461       0.71657168     260.36921     -342.60189     -328.16386    
    105000   210000         540.6193      -275.68309      12864.266      13501.003      7797.9684      5703.0349      2576.8252      2679.8402      4727.7254      0             -4281.356       0              0             -157.41907      158370.58      54.103435      54.103435      54.103435      0.71225638     344.04885     -930.23034     -240.86779    
    106000   212000         545.55846     -48.004828      13505.024      13616.471      7869.2115      5747.2591      2695.2052      2654.5312      4646.9699      0             -4249.4473      0              0             -156.61204      159186.67      54.196208      54.196208      54.196208      0.7086049      342.10117     -188.10942     -298.00624    
    107000   214000         552.83063      30.534694      13575.398      13505.055      7974.1062      5530.9492      2699.2059      2471.8833      4619.5624      0             -4259.7023      0              0             -157.82669      157961.55      54.056817      54.056817      54.056817      0.71410069    -166.34247      457.23152     -199.28497    
    108000   216000         559.97784     -315.60283      12918.177      13646.148      8077.1986      5568.9498      2624.262       2576.6219      4662.074       0             -4294.0081      0              0             -157.62828      158160.38      54.079487      54.079487      54.079487      0.71320298    -879.08078      335.25117     -402.97888    
    109000   218000         546.18711      704.68647      15403.774      13770.866      7878.2792      5892.5868      2724.9415      2702.2431      4706.532       0             -4241.1299      0              0             -156.90687      158887.56      54.162241      54.162241      54.162241      0.70993889     797.32012      884.0513       432.68798    
    110000   220000         560.15595      38.926906      14003.238      13913.458      8079.7677      5833.6902      2706.6028      2712.2605      4694.3666      0             -4279.5396      0              0             -157.64377      158144.85      54.077717      54.077717      54.077717      0.71327304    -242.45149     -159.69394      518.92615    
    111000   222000         552.82635      0.59502035     13700.85       13699.477      7974.0446      5725.4319      2707.6869      2663.1532      4592.2782      0             -4237.6863      0              0             -157.55183      158237.13      54.088233      54.088233      54.088233      0.71285708    -415.70882      678.11258     -260.6187     
    112000   224000         547.68395      782.23757      15315.782      13537.982      7899.8699      5638.1126      2700.0571      2582.3243      4709.726       0             -4353.9949      0              0             -159.97921      155836.18      53.813276      53.813276      53.813276      0.72383995     624.68191      892.07535      829.95544    
    113000   226000         551.85228     -200.97213      12961.835      13423.32       7959.9944      5463.3256      2609.5945      2581.5744      4551.9085      0             -4279.7518      0              0             -158.33815      157451.32      53.99855       53.99855       53.99855       0.71641482     279.48067     -634.19809     -248.19898    
    114000   228000         551.64499      780.38027      15563.712      13764.5        7957.0045      5807.4953      2788.385       2629.1422      4662.7128      0             -4272.7447      0              0             -157.69997      158088.48      54.071292      54.071292      54.071292      0.71352734     217.36452      1052.2244      1071.5519    
    115000   230000         548.60623      49.089372      13500.294      13387.753      7913.173       5474.5797      2643.5258      2507.9542      4632.3681      0             -4309.2683      0              0             -158.59272      157198.57      53.969641      53.969641      53.969641      0.71756666    -241.7115       786.26208     -397.28247    
    116000   232000         552.20084      219.16405      13980.961      13481.614      7965.0221      5516.5919      2646.7927      2614.3507      4605.7956      0             -4350.3471      0              0             -159.57864      156227.36      53.858266      53.858266      53.858266      0.72202753     168.37431      761.50352     -272.38568    
    117000   234000         543.38156     -158.89957      13088.954      13453.342      7837.8116      5615.5307      2681.503       2584.3171      4615.3058      0             -4265.5952      0              0             -158.54975      157241.18      53.974517      53.974517      53.974517      0.71737223     96.956835     -266.99289     -306.66266    
    118000   236000         556.1564       750.61433      15236.975      13541.346      8022.0777      5519.2681      2655.1819      2694.6028      4563.5622      0             -4394.0789      0              0             -160.95097      154895.31      53.704757      53.704757      53.704757      0.72823676     829.57816      822.87507      599.38977    
    119000   238000         554.36477     -795.96276      11860.414      13694.807      7996.235       5698.5717      2747.9981      2650.3642      4632.3083      0             -4332.0988      0              0             -157.76412      158024.2       54.063962      54.063962      54.063962      0.7138176      222.54073     -1821.5682     -788.86082    
    120000   240000         549.97022     -802.96886      11632.043      13445.77       7932.8473      5512.9222      2659.2122      2598.2318      4642.6528      0             -4387.1746      0              0             -160.96618      154880.67      53.703065      53.703065      53.703065      0.72830558    -497.62248     -857.28682     -1053.9973    
    121000   242000         550.54578     -240.32707      13035.481      13581.886      7941.1493      5640.7367      2680.1545      2648.8401      4664.3212      0             -4352.5791      0              0             -159.91753      155896.29      53.820194      53.820194      53.820194      0.72356086    -622.83676      147.06972     -245.21417    
    122000   244000         549.22722     -33.828231      13406.206      13482.538      7922.1302      5560.4077      2678.9526      2620.6351      4633.5342      0             -4372.7141      0              0             -161.13194      154721.34      53.684644      53.684644      53.684644      0.72905556     201.78163      90.732081     -393.99841    
    123000   246000         548.47422      333.11137      14257.264      13505.025      7911.2688      5593.756       2640.9791      2685.6622      4638.3574      0             -4371.2427      0              0             -161.00568      154842.67      53.698673      53.698673      53.698673      0.72848431     531.58974      283.99029      183.7541     
    124000   248000         551.48929     -775.5442       11647.958      13434.136      7954.7586      5479.3774      2658.9553      2587.7094      4549.8943      0             -4317.1816      0              0             -157.86636      157921.86      54.052289      54.052289      54.052289      0.71428017    -75.015191     -1200.1618     -1051.4556    
    125000   250000         543.30144     -186.9778       13138.153      13569.316      7836.656       5732.66        2673.9812      2663.364       4668.3553      0             -4273.0405      0              0             -157.67266      158115.87      54.074414      54.074414      54.074414      0.71340376     452.16797     -69.484497     -943.61687    
    126000   252000         561.1903       181.50999      14168.031      13755.81       8094.6874      5661.1229      2663.1779      2675.8481      4702.7976      0             -4380.7007      0              0             -160.09513      155723.34      53.800285      53.800285      53.800285      0.72436446    -344.65899     -108.83393      998.02289    
    127000   254000         549.85423     -44.215258      13339.412      13439.762      7931.1743      5508.5876      2621.1851      2605.9361      4633.3752      0             -4351.9089      0              0             -160.20081      155620.62      53.788453      53.788453      53.788453      0.72484259    -271.25271      599.04296     -460.43603    
    128000   256000         551.72043     -79.623161      13308.98       13490.16       7958.0926      5532.0674      2709.4613      2520.1039      4617.2652      0             -4314.7629      0              0             -159.78523      156025.37      53.835044      53.835044      53.835044      0.72296226     249.88713      403.24791     -892.00453    
    129000   258000         536.47923      599.29557      14888.432      13501.695      7738.2514      5763.444       2718.3129      2651.4135      4656.9732      0             -4263.2556      0              0             -157.12844      158663.51      54.136771      54.136771      54.136771      0.71094138     781.62521      341.67677      674.58471    
    130000   260000         543.23643     -155.30813      13140.759      13498.998      7835.7182      5663.2797      2661.6759      2629.1297      4647.8617      0             -4275.3876      0              0             -157.62637      158162.31      54.079707      54.079707      54.079707      0.71319431    -746.46304      343.9119      -63.373262    
    131000   262000         552.81262      35.294038      13896.289      13815.467      7973.8465      5841.6205      2734.9281      2725.5089      4653.7278      0             -4272.5443      0              0             -158.77486      157018.25      53.948997      53.948997      53.948997      0.71839074     575.82698     -528.11277      58.167904    
    132000   264000         551.85021      580.29183      14964.315      13631.061      7959.9646      5671.0967      2597.1724      2602.738       4734.0613      0             -4262.8749      0              0             -158.2491       157539.91      54.008676      54.008676      54.008676      0.71601193     1033.3734      337.53583      369.96622    
    133000   266000         546.44613      197.49729      13919.653      13466.983      7882.0154      5584.9673      2561.2722      2721.8273      4607.9985      0             -4306.1306      0              0             -158.63065      157160.98      53.96534       53.96534       53.96534       0.71773828     714.18254     -120.11641     -1.5742536    
    134000   268000         552.12222      178.87356      13817.309      13411.114      7963.8881      5447.226       2562.1148      2611.0372      4620.9498      0             -4346.8759      0              0             -160.1102       155708.69      53.798597      53.798597      53.798597      0.72443263     595.88677      297.3027      -356.56881    
    135000   270000         541.69454      336.98803      14243.873      13476.311      7813.4778      5662.8329      2726.2418      2663.8219      4573.5761      0             -4300.8069      0              0             -159.62786      156179.19      53.85273       53.85273       53.85273       0.72225023     405.27602     -20.121716      625.80979    
    136000   272000         552.18581     -479.02217      12533.656      13648.476      7964.8054      5683.6702      2733.0104      2643.5804      4533.7949      0             -4226.7156      0              0             -156.22801      159577.98      54.240579      54.240579      54.240579      0.7068673     -754.99592      108.15933     -790.22991    
    137000   274000         542.75629     -143.94163      13343.877      13678.366      7828.7926      5849.5737      2742.799       2715.8201      4596.8513      0             -4205.8968      0              0             -156.46327      159338.03      54.21338       54.21338       54.21338       0.70793177     159.47448     -58.072329     -533.22706    
    138000   276000         544.04936      271.94371      13944.663      13316.607      7847.444       5469.1633      2651.5917      2573.3442      4506.8769      0             -4262.6495      0              0             -157.43039      158359.19      54.102138      54.102138      54.102138      0.71230759     649.51739      409.02668     -242.71294    
    139000   278000         543.71076     -119.19906      13044.657      13318.697      7842.56        5476.1372      2644.1333      2567.941       4595.8605      0             -4331.7976      0              0             -158.14885      157639.77      54.020086      54.020086      54.020086      0.71555834    -153.29434     -352.37137      148.06855    
    140000   280000         541.22256     -26.776168      13454.061      13515.478      7806.6699      5708.8079      2772.9734      2627.1668      4634.3612      0             -4325.6936      0              0             -158.51342      157277.21      53.978639      53.978639      53.978639      0.71720788     237.2912      -366.96707      49.347369    
    141000   282000         552.76963     -329.89213      12805.656      13569.654      7973.2265      5596.4278      2748.2361      2560.7711      4598.5458      0             -4311.1252      0              0             -156.99552      158797.84      54.152046      54.152046      54.152046      0.71033997     219.08776     -887.31519     -321.44895    
    142000   284000         543.71023      173.16515      13930.472      13534.719      7842.5524      5692.1662      2780.2437      2591.707       4637.3782      0             -4317.1627      0              0             -159.09013      156707.07      53.913335      53.913335      53.913335      0.71981725     641.19518     -22.966892     -98.732832    
    143000   286000         550.28143      550.32911      14838.615      13580.904      7937.3364      5643.5677      2759.0383      2596.6359      4625.7615      0             -4337.8681      0              0             -159.09235      156704.89      53.913085      53.913085      53.913085      0.71982729     650.35352      162.5858       838.04802    
    144000   288000         546.12129      195.289        13883.445      13428.407      7877.3299      5551.0769      2639.587       2628.2453      4543.8201      0             -4260.5755      0              0             -156.04069      159769.54      54.262275      54.262275      54.262275      0.70601977     292.24417      251.99912      41.623719    
    145000   290000         558.25635     -296.91937      13059.5        13739.201      8052.3677      5686.8336      2732.6808      2645.0911      4659.2794      0             -4350.2177      0              0             -158.82834      156965.37      53.942941      53.942941      53.942941      0.71863274    -2.6590756     -376.32626     -511.77277    
    146000   292000         551.90436      895.01858      15535.036      13479.193      7960.7457      5518.4473      2666.3908      2630.5813      4522.8262      0             -4301.351       0              0             -158.28868      157500.52      54.004174      54.004174      54.004174      0.71619101     1396.0983      467.81724      821.14018    
    147000   294000         547.5953       227.29136      14152.99       13625.208      7898.5912      5726.617       2763.274       2630.2515      4614.7148      0             -4281.6233      0              0             -156.5799       159219.34      54.199916      54.199916      54.199916      0.70845949     177.2849       547.49659     -42.907403    
    148000   296000         543.83489     -266.57349      12906.046      13518.697      7844.3505      5674.346       2723.2331      2625.1159      4648.9272      0             -4322.9301      0              0             -158.20193      157586.89      54.014044      54.014044      54.014044      0.71579847    -397.97283      511.26271     -913.01035    
    149000   298000         549.56677      230.40296      14062.098      13530.257      7927.028       5603.2295      2722.5588      2636.0835      4565.8601      0             -4321.2729      0              0             -157.51239      158276.75      54.092748      54.092748      54.092748      0.71267862    -157.41341      475.15111      373.47117    
    150000   300000         560.16858      328.36024      14437.708      13682.99       8079.9499      5603.0401      2627.811       2583.1371      4699.6428      0             -4307.5508      0              0             -158.188        157600.77      54.015629      54.015629      54.015629      0.71573545    -110.72437      803.19859      292.60649    
    151000   302000         560.20024      262.11245      14337.334      13741.092      8080.4066      5660.6853      2634.8961      2659.7401      4697.6406      0             -4331.5916      0              0             -159.83518      155976.61      53.829435      53.829435      53.829435      0.72318829     244.80541      309.90067      231.63126    
    152000   304000         544.96639      865.82559      15275.651      13343.597      7860.6714      5482.9259      2719.8294      2550.445       4675.3452      0             -4462.6937      0              0             -162.93674      153007.54      53.485691      53.485691      53.485691      0.73722155     297.3209       774.71068      1525.4452    
    153000   306000         547.70134     -326.33042      12731.718      13470.588      7900.1208      5570.4671      2705.1093      2631.2585      4623.5305      0             -4389.4312      0              0             -160.58227      155250.95      53.745827      53.745827      53.745827      0.72656856    -152.36413     -549.72528     -276.90184    
    154000   308000         555.06813      159.69482      14123.96       13757.203      8006.3804      5750.8226      2732.2704      2668.8981      4660.1223      0             -4310.4681      0              0             -158.31447      157474.86      54.001242      54.001242      54.001242      0.71630768     14.420278     -51.203634      515.8678     
    155000   310000         549.81203     -416.3899       12463.904      13408.435      7930.5657      5477.8693      2701.485       2572.1658      4542.8831      0             -4338.6645      0              0             -160.28457      155539.3       53.779081      53.779081      53.779081      0.72522159    -772.23768     -251.20595     -225.72606    
    156000   312000         544.89561     -43.150863      13255.559      13356.384      7859.6504      5496.7332      2597.549       2582.52        4542.9761      0             -4226.3118      0              0             -155.60709      160214.74      54.312628      54.312628      54.312628      0.70405793     243.48423      281.21471     -654.15153    
    157000   314000         546.65969     -129.92289      13276.742      13575.372      7885.0959      5690.2763      2648.0842      2657.9528      4723.2031      0             -4338.9638      0              0             -158.1832       157605.55      54.016176      54.016176      54.016176      0.71571373    -554.98564     -505.00401      670.22097    
    158000   316000         562.11859     -528.85717      12435.855      13663.796      8108.0772      5555.7186      2643.7745      2580.4983      4565.9524      0             -4234.5067      0              0             -156.59166      159207.39      54.198559      54.198559      54.198559      0.70851267    -391.62514     -546.39878     -648.54758    
    159000   318000         553.40778      184.66729      14090.505      13665.963      7982.4313      5683.5313      2705.2057      2690.8998      4572.0493      0             -4284.6235      0              0             -158.15257      157636.07      54.019662      54.019662      54.019662      0.71557516     234.67733      429.25079     -109.92624    
    160000   320000         546.99602     -23.331598      13645.21       13699.047      7889.947       5809.0996      2736.6489      2696.3463      4677.551       0             -4301.4466      0              0             -157.57159      158217.29      54.085973      54.085973      54.085973      0.71294646    -367.64672      234.3587       63.293225    
    161000   322000         556.24597      722.86962      15479.888      13829.342      8023.3696      5805.9729      2670.9312      2637.905       4786.6029      0             -4289.4661      0              0             -159.23559      156563.93      53.896914      53.896914      53.896914      0.72047538     132.97548      1020.4687      1015.1646    
    162000   324000         541.10354      47.502304      13493.432      13385.342      7804.9531      5580.389       2690.8014      2591.1925      4620.8928      0             -4322.4977      0              0             -159.78573      156024.88      53.834988      53.834988      53.834988      0.72296452     8.5741611      476.92929     -342.99654    
    163000   326000         554.82803      147.71907      14179.245      13838.519      8002.917       5835.6018      2723.2491      2719.245       4670.8051      0             -4277.6973      0              0             -157.62996      158158.7       54.079296      54.079296      54.079296      0.71321056     227.0203       153.87748      62.259436    
    164000   328000         555.2676       96.600779      13880.704      13657.477      8009.2575      5648.2198      2655.2213      2570.9176      4695.7249      0             -4273.644       0              0             -157.34142      158448.74      54.112333      54.112333      54.112333      0.71190505    -237.9887       308.88879      218.90224    
    165000   330000         548.45748     -119.52393      13389.183      13662.601      7911.0274      5751.5741      2715.6963      2607.4971      4716.2587      0             -4287.878       0              0             -158.94079      156854.32      53.930217      53.930217      53.930217      0.71914151    -220.85689      372.69323     -510.40814    
    166000   332000         545.32109      562.50547      14806.219      13509.167      7865.7877      5643.3789      2710.3647      2634.7878      4606.6095      0             -4308.383       0              0             -157.68019      158108.32      54.073553      54.073553      54.073553      0.71343784     647.59673      415.17781      624.74186    
    167000   334000         545.66447      27.920119      13665.099      13601.649      7870.7406      5730.9089      2726.2837      2660.5901      4700.4061      0             -4356.371       0              0             -159.991        155824.7       53.811954      53.811954      53.811954      0.7238933     -226.34603      222.27001      87.836375    
    168000   336000         545.69554      362.05309      14226.003      13406.653      7871.1888      5535.464       2648.4529      2642.9188      4635.0582      0             -4390.966       0              0             -160.66091      155174.96      53.737057      53.737057      53.737057      0.72692436    -88.985731      1120.2973      54.847649    
    169000   338000         547.48583     -343.90323      12694.54       13484.671      7897.0122      5587.6593      2657.1943      2639.1739      4627.74        0             -4336.449       0              0             -158.25041      157538.61      54.008528      54.008528      54.008528      0.71601784    -196.49886     -172.11475     -663.09608    
    170000   340000         553.59085     -70.402433      13341.451      13500.185      7985.0719      5515.1134      2702.3502      2675.7774      4495.5622      0             -4358.5764      0              0             -161.25915      154599.29      53.670524      53.670524      53.670524      0.72963113     371.78456     -977.0018       394.00994    
    171000   342000         542.70395      13.003772      13545.396      13515.285      7828.0377      5687.2478      2754.7913      2554.8319      4598.0398      0             -4220.4152      0              0             -157.02385      158769.19      54.148789      54.148789      54.148789      0.71046815     116.13982     -592.83234      515.70383    
    172000   344000         549.98011      378.66616      14595.979      13729.491      7932.99        5796.5006      2694.3545      2681.5788      4724.1826      0             -4303.6153      0              0             -158.8917       156902.78      53.935769      53.935769      53.935769      0.71891943     574.93293      510.14696      50.918601    
    173000   346000         543.3297       28.714893      13614.09       13548.023      7837.0635      5710.9593      2704.8118      2617.3513      4684.3927      0             -4295.5965      0              0             -158.02508      157763.25      54.034186      54.034186      54.034186      0.71499831     93.430054      182.66549     -189.95086    
    174000   348000         553.90048     -961.68652      11483.919      13691.605      7989.5379      5702.0667      2750.5414      2632.0993      4646.0996      0             -4326.6736      0              0             -158.38135      157408.37      53.99364       53.99364       53.99364       0.71661028    -789.1155      -1206.5555     -889.38853    
    175000   350000         539.6644       304.10114      14276.984      13579.345      7784.1947      5795.1501      2701.9246      2735.5591      4668.1388      0             -4310.4724      0              0             -158.48754      157302.9       53.981578      53.981578      53.981578      0.71709074     572.26885      298.92617      41.108394    
    176000   352000         536.90749     -572.8917       12006.163      13314.721      7744.4287      5570.2923      2612.5428      2674.2896      4650.7478      0             -4367.288       0              0             -159.17951      156619.09      53.903243      53.903243      53.903243      0.72022163    -526.87307     -267.2627      -924.53934    
    177000   354000         550.62815      752.58689      15242.723      13529.576      7942.3374      5587.2382      2666.7639      2606.4211      4658.7529      0             -4344.6997      0              0             -159.72378      156085.39      53.841947      53.841947      53.841947      0.72268425     1349.4516      417.07929      491.22977    
    178000   356000         546.2257       609.16215      14927.252      13540.457      7878.8359      5661.6209      2623.8368      2693.9628      4721.5263      0             -4377.705       0              0             -159.70863      156100.2       53.843649      53.843649      53.843649      0.72261571     1239.0591      102.67592      485.75144    
    179000   358000         549.46572     -205.57257      13057.133      13533.378      7925.5704      5607.808       2628.025       2666.3475      4562.3556      0             -4248.9201      0              0             -156.94292      158851.06      54.158094      54.158094      54.158094      0.710102       300.75345     -597.84346     -319.6277     
    180000   360000         547.72649     -432.15975      12555.95       13537.613      7900.4835      5637.129       2644.5331      2666.947       4684.4871      0             -4358.8383      0              0             -160.06256      155755.03      53.803934      53.803934      53.803934      0.72421709    -183.47831     -243.27348     -869.72746    
    181000   362000         546.37083     -158.74565      13134.067      13497.527      7880.9292      5616.5977      2630.9346      2634.4019      4675.5154      0             -4324.2542      0              0             -158.80071      156992.68      53.946069      53.946069      53.946069      0.71850772     112.32656     -820.36312      231.79961    
    182000   364000         549.12171     -173.26146      13182.882      13582.486      7920.6083      5661.8772      2652.4799      2641.5332      4640.8724      0             -4273.0083      0              0             -157.64509      158143.52      54.077566      54.077566      54.077566      0.71327903    -384.74114      105.46796     -240.5112     
    183000   366000         554.61534     -455.16169      12632.758      13668.753      7999.8493      5668.9042      2736.0222      2662.0072      4593.0733      0             -4322.1984      0              0             -159.74078      156068.79      53.840037      53.840037      53.840037      0.72276114    -976.36953     -331.75788     -57.357653    
    184000   368000         553.68476     -65.708967      13491.328      13641.706      7986.4263      5655.2798      2655.7702      2599.2649      4714.179       0             -4313.9342      0              0             -158.87158      156922.65      53.938047      53.938047      53.938047      0.71882837    -65.278932      151.7977      -283.64567    
    185000   370000         554.25734      51.425059      13734.61       13617.994      7994.6854      5623.3089      2705.4561      2641.0403      4641.8217      0             -4365.0092      0              0             -160.33355      155491.78      53.773604      53.773604      53.773604      0.7254432      549.27522     -275.97605     -119.02399    
    186000   372000         533.63144      538.51261      14474.662      13255.92       7697.1745      5558.7457      2643.4808      2691.4798      4597.9946      0             -4374.2095      0              0             -160.65409      155181.54      53.737817      53.737817      53.737817      0.72689352     449.16274      446.67289      719.70221    
    187000   374000         556.6261       132.53632      13947.018      13645.914      8028.8527      5617.0617      2661.2154      2651.2328      4709.089       0             -4404.4754      0              0             -160.03936      155777.61      53.806533      53.806533      53.806533      0.72411213    -32.179744     -17.832424      447.62113    
    188000   376000         548.16708     -123.30994      13244.628      13529.401      7906.8386      5622.5628      2783.1061      2590.5964      4565.1906      0             -4316.3303      0              0             -157.43694      158352.61      54.101388      54.101388      54.101388      0.71233722    -1133.8206      721.79814      42.092673    
    189000   378000         545.80008      256.46043      14041.287      13451.231      7872.6967      5578.5348      2633.2074      2624.0615      4648.6534      0             -4327.3876      0              0             -158.02848      157759.85      54.033798      54.033798      54.033798      0.71501372     82.543644     -139.34292      826.18058    
    190000   380000         552.36899      146.8332       13901.542      13568.649      7967.4476      5601.2013      2725.9355      2586.8639      4621.3028      0             -4332.9009      0              0             -160.37129      155455.19      53.769386      53.769386      53.769386      0.72561394     158.60993      669.47055     -387.58088    
    191000   382000         557.16955      449.89806      14503.305      13479.431      8036.6916      5442.7399      2594.8289      2591.8055      4647.0287      0             -4390.9232      0              0             -159.76278      156047.29      53.837565      53.837565      53.837565      0.72286071     522.62999      346.22388      480.84033    
    192000   384000         545.62292      460.56947      14508.796      13459.681      7870.1413      5589.5401      2716.7251      2610.1624      4631.7065      0             -4369.0539      0              0             -159.61734      156189.48      53.853913      53.853913      53.853913      0.72220264     209.87236      808.01244      363.8236     
    193000   386000         550.47938      500.59067      14701.084      13563.953      7940.1916      5623.7613      2715.3344      2597.0662      4644.5816      0             -4333.2209      0              0             -160.05889      155758.6       53.804345      53.804345      53.804345      0.72420047     881.95637      529.26332      90.552304    
    194000   388000         561.28054      235.65143      14244.253      13701.408      8095.9891      5605.4186      2655.8543      2677.8521      4524.4197      0             -4252.7075      0              0             -157.83453      157953.7       54.055921      54.055921      54.055921      0.71413618     469.87693     -253.53548      490.61285    
    195000   390000         548.53963      2.5812844      13510.133      13504.285      7912.2123      5592.073       2676.209       2634.1196      4659.6807      0             -4377.9362      0              0             -160.50296      155327.67      53.754679      53.754679      53.754679      0.72620968     232.11066      166.34679     -390.71359    
    196000   392000         548.23245     -522.28237      12178.749      13386.193      7907.7815      5478.4117      2695.921       2540.1722      4529.443       0             -4287.1244      0              0             -157.27         158520.69      54.120523      54.120523      54.120523      0.7115819     -103.9994      -515.28629     -947.56142    
    197000   394000         551.06432     -272.00477      13046.831      13681.039      7948.6288      5732.4098      2748.0321      2598.484       4625.4317      0             -4239.5381      0              0             -155.93833      159874.42      54.274145      54.274145      54.274145      0.70555662    -548.45423      172.2299      -439.78998    
    198000   396000         568.51829      47.667437      13935.273      13826.022      8200.3873      5625.6349      2632.2593      2629.5238      4691.9163      0             -4328.0644      0              0             -158.63701      157154.68      53.964618      53.964618      53.964618      0.71776706     106.66691     -367.19651      403.53191    
    199000   398000         547.65757      612.90288      15001.823      13592.13       7899.4893      5692.6411      2750.6429      2516.8834      4722.6279      0             -4297.513       0              0             -158.07929      157709.15      54.028009      54.028009      54.028009      0.71524358     629.56265      539.17312      669.97287    
    200000   400000         547.59549     -72.02775       13375.523      13537.766      7898.5939      5639.1723      2788.3648      2608.5482      4596.9315      0             -4354.6723      0              0             -161.41436      154450.63      53.653315      53.653315      53.653315      0.73033343    -107.01104     -413.34169      304.26948    
    201000   402000         547.22298      160.1781       14129.681      13755.318      7893.2208      5862.0973      2795.5989      2740.0041      4590.784       0             -4264.2897      0              0             -155.56731      160255.71      54.317258      54.317258      54.317258      0.70387792    -181.56941      350.51199      311.59171    
    202000   404000         546.66134      190.22717      14045.06       13603.501      7885.1195      5718.3814      2792.1936      2663.1612      4507.9569      0             -4244.9303      0              0             -156.63607      159162.26      54.193437      54.193437      54.193437      0.7087136     -471.69943      88.955137      953.42582    
    203000   406000         554.71451     -62.522407      13397.114      13541.819      8001.2797      5540.5397      2721.7759      2597.6404      4506.851       0             -4285.7277      0              0             -157.09418      158698.11      54.140707      54.140707      54.140707      0.71078637    -92.547753     -252.7699       157.75043    
    204000   408000         545.82817     -511.50753      12406.376      13582.558      7873.1019      5709.4558      2694.5869      2680.1586      4669.6175      0             -4334.9073      0              0             -158.11951      157669.03      54.023427      54.023427      54.023427      0.71542557    -974.83449     -430.25772     -129.43037    
    205000   410000         554.54304      477.3632       14897.058      13789.284      7998.8063      5790.4781      2742.1503      2698.7393      4589.2126      0             -4239.6241      0              0             -156.67719      159120.48      54.188695      54.188695      54.188695      0.70889965     788.4026       272.52542      371.16158    
    206000   412000         546.5046      -15.811345      13361.296      13397.612      7882.8588      5514.7528      2664.0015      2503.2773      4637.3075      0             -4289.8336      0              0             -158.30158      157487.68      54.002707      54.002707      54.002707      0.71624937    -269.89865      451.46723     -229.00262    
[...]
    450000   900000         543.33446      133.4464       13792.824      13483.974      7837.1322      5646.8414      2720.4767      2699.1988      4558.9892      0             -4331.8233      0              0             -157.09672      158695.54      54.140414      54.140414      54.140414      0.71079789    -240.16016      88.179988      552.31937    
    451000   902000         555.71106      186.80983      14132.02       13699.768      8015.654       5684.1144      2688.7542      2528.4798      4704.5797      0             -4237.6993      0              0             -157.13432      158657.57      54.136096      54.136096      54.136096      0.71096798     603.9785       302.17874     -345.72776    
    452000   904000         559.29935      12.591736      13686.411      13657.681      8067.4121      5590.2687      2615.6613      2623.6495      4690.7239      0             -4339.7659      0              0             -159.35112      156450.42      53.883886      53.883886      53.883886      0.72099811    -346.64961      721.36836     -336.94354    
    453000   906000         554.84743      35.429922      13674.89       13592.327      8003.1969      5589.1302      2552.0086      2643.8034      4639.5997      0             -4246.2814      0              0             -156.02463      159785.99      54.264137      54.264137      54.264137      0.70594711     456.91482     -82.235473     -268.38958    
    454000   908000         557.3181       30.795429      13713.729      13643.152      8038.8342      5604.3175      2643.8563      2690.007       4631.0518      0             -4360.5975      0              0             -158.64603      157145.75      53.963596      53.963596      53.963596      0.71780785     121.1767      -186.10037      157.30996    
    455000   910000         555.67157     -174.03447      13312.016      13716.572      8015.0844      5701.4872      2630.0701      2665.6124      4648.6308      0             -4242.8261      0              0             -156.41003      159392.26      54.21953       54.21953       54.21953       0.70769091    -339.18975     -21.646008     -161.26766    
    456000   912000         547.50738      279.37356      14320.259      13671.51       7897.3231      5774.187       2655.4204      2668.7943      4621.1285      0             -4171.1563      0              0             -156.5729       159226.46      54.200723      54.200723      54.200723      0.70842782     222.38203      398.18746      217.5512     
    457000   914000         555.66158      21.174322      13707.276      13658.503      8014.9403      5643.5628      2624.5317      2623.3824      4659.9294      0             -4264.2807      0              0             -157.84871      157939.52      54.054303      54.054303      54.054303      0.71420033     329.99286      149.94464     -416.41453    
    458000   916000         548.69982      47.342255      13581.925      13474.328      7914.5229      5559.805       2606.947       2604.6298      4649.1807      0             -4300.9525      0              0             -159.97716      155838.19      53.813507      53.813507      53.813507      0.72383065    -67.97591      -22.77232       232.775      
    459000   918000         538.73577      314.92367      14094.844      13375.341      7770.8001      5604.5412      2689.3875      2620.1756      4655.9658      0             -4360.9876      0              0             -159.14047      156657.51      53.907651      53.907651      53.907651      0.72004499     224.27386      287.74497      432.75219    
    460000   920000         563.97083      87.324045      13793.106      13594.791      8134.7942      5459.9967      2661.6062      2654.4926      4555.412       0             -4411.5141      0              0             -160.09781      155720.74      53.799985      53.799985      53.799985      0.72437656    -193.72647      137.61779      318.08082    
    461000   922000         549.12066     -462.08828      12509.191      13555.437      7920.5932      5634.8435      2658.5255      2719.1911      4592.4222      0             -4335.2953      0              0             -160.5828       155250.44      53.745768      53.745768      53.745768      0.72657095    -900.22039     -480.52985     -5.514611     
    462000   924000         547.82344      22.951335      13472.177      13420.191      7901.8818      5518.3088      2603.613       2557.4409      4727.6813      0             -4370.4263      0              0             -160.51822      155312.89      53.752975      53.752975      53.752975      0.72627876     150.86867     -6.1520913     -75.862576    
    463000   926000         559.92558      972.17697      15936.887      13732.05       8076.4449      5655.6053      2664.5368      2650.4231      4695.9839      0             -4355.3384      0              0             -160.31589      155508.91      53.775579      53.775579      53.775579      0.72536329     1266.6849      316.27896      1333.5671    
    464000   928000         550.67587      280.83689      14163.357      13520.728      7943.0257      5577.7022      2733.1432      2688.1284      4479.74        0             -4323.3095      0              0             -158.89193      156902.55      53.935744      53.935744      53.935744      0.71892046     172.40825      433.01731      237.08512    
    465000   930000         548.96103     -300.81419      12945.667      13631.814      7918.2907      5713.5229      2727.3336      2702.0201      4589.7314      0             -4305.5621      0              0             -159.4002       156402.25      53.878356      53.878356      53.878356      0.72122016     123.01321     -846.40429     -179.0515     
    466000   932000         545.33872      590.07914      14927.779      13576.901      7866.042       5710.8587      2720.0805      2650.2243      4609.6463      0             -4269.0924      0              0             -158.81875      156974.85      53.944026      53.944026      53.944026      0.71858936     303.65813      974.99518      491.5841     
    467000   934000         546.45459     -180.29424      13174.111      13587.266      7882.1374      5705.1281      2766.3102      2628.2332      4636.6277      0             -4326.043       0              0             -158.66333      157128.61      53.961634      53.961634      53.961634      0.71788616     364.05268      729.87611     -1634.8115    
    468000   936000         541.02602     -654.44881      12048.112      13568.073      7803.835       5764.238       2710.3406      2723.293       4603.7573      0             -4273.1529      0              0             -156.54924      159250.53      54.203454      54.203454      54.203454      0.70832076    -923.32813      74.262537     -1114.2808    
    469000   938000         543.87737      463.07204      14777.008      13695.131      7844.9632      5850.1679      2759.2633      2609.5272      4704.4911      0             -4223.1137      0              0             -155.62467      160196.64      54.310583      54.310583      54.310583      0.70413747     574.77976      852.702       -38.26565     
    470000   940000         552.78628      709.22923      15272.577      13660.385      7973.4666      5686.9184      2742.2793      2656.902       4655.535       0             -4367.798       0              0             -159.94759      155866.99      53.816822      53.816822      53.816822      0.72369689     952.3894       1402.9723     -227.67398    
    471000   942000         552.67788      68.411675      13912.253      13754.852      7971.9031      5782.9489      2711.627       2760.1659      4619.8368      0             -4308.6808      0              0             -158.02671      157761.62      54.034         54.034         54.034         0.71500569    -696.93138      377.60307      524.56333    
    472000   944000         533.32314     -214.2238       12749.839      13240.342      7692.7275      5547.6149      2599.4722      2671.9172      4633.6026      0             -4357.3771      0              0             -158.79387      156999.45      53.946844      53.946844      53.946844      0.71847676    -372.60239      680.5021      -950.57111    
    473000   946000         543.27217     -302.43097      12669.718      13371.038      7836.2337      5534.8044      2694.344       2633.8918      4509.6439      0             -4303.0753      0              0             -156.78977      159006.23      54.175723      54.175723      54.175723      0.70940904    -104.25804     -298.2524      -504.78248    
    474000   948000         560.87122      93.889574      13932.17       13714.248      8090.0849      5624.1632      2681.3161      2641.6836      4581.1806      0             -4280.0171      0              0             -156.64762      159150.51      54.192104      54.192104      54.192104      0.7087659      876.34201     -76.178797     -518.49449    
    475000   950000         547.80092     -65.142859      13422.574      13574.805      7901.557       5673.2476      2635.2851      2598.2623      4670.5561      0             -4230.8558      0              0             -155.58628      160236.17      54.31505       54.31505       54.31505       0.70396375     178.70646     -101.86312     -272.27191    
    476000   952000         541.55678     -213.68951      13089.181      13582.403      7811.4907      5770.9125      2679.8223      2630.4625      4747.9636      0             -4287.3361      0              0             -157.52466      158264.42      54.091343      54.091343      54.091343      0.71273412    -669.70943      126.53077     -97.889865    
    477000   954000         553.99605     -67.017633      13479.36       13632.71       7990.9166      5641.7934      2676.0863      2642.8648      4656.4642      0             -4333.6218      0              0             -158.89569      156898.84      53.935318      53.935318      53.935318      0.71893749    -172.25511      330.25261     -359.05041    
    478000   956000         552.8532       458.40846      14787.625      13731.069      7974.4318      5756.6372      2610.5839      2691.5772      4714.6537      0             -4260.1775      0              0             -157.74948      158038.87      54.065634      54.065634      54.065634      0.71375136     745.67224      313.74157      315.81157    
    479000   958000         540.76262      199.87093      13919.037      13459.526      7800.0357      5659.4905      2732.0657      2618.2762      4653.5794      0             -4344.4309      0              0             -158.1471       157641.52      54.020285      54.020285      54.020285      0.7155504      1139.2259     -749.3326       209.71949    
    480000   960000         544.55105     -53.699944      13503.724      13625.59       7854.6805      5770.91        2767.3769      2554.9766      4761.62        0             -4313.0635      0              0             -160.21249      155609.27      53.787145      53.787145      53.787145      0.72489546    -323.6773       338.96534     -176.38788    
    481000   962000         547.66181     -285.32005      12844.813      13497.822      7899.5506      5598.271       2765.9261      2613.0764      4510.1678      0             -4290.8993      0              0             -158.86233      156931.78      53.939093      53.939093      53.939093      0.71878655     16.624533     -331.72609     -540.85859    
    482000   964000         544.01614     -150.87893      13029.77       13375.516      7846.9649      5528.5515      2582.9598      2691.4761      4557.4427      0             -4303.3272      0              0             -158.66391      157128.04      53.961568      53.961568      53.961568      0.71788878    -368.26342     -132.46233      48.088961    
    483000   966000         559.22909      542.38841      14973.469      13729.515      8066.3986      5663.1163      2670.6261      2735.5474      4535.2711      0             -4278.3283      0              0             -158.53087      157259.9       53.976659      53.976659      53.976659      0.71728681     305.30934      435.75156      886.10432    
    484000   968000         546.95708      71.931806      13735.581      13569.424      7889.3854      5680.0386      2719.2804      2639.7931      4626.9376      0             -4305.9726      0              0             -157.40146      158388.3       54.105452      54.105452      54.105452      0.71217671    -72.261229     -1.3803621      289.43701    
    485000   970000         542.28657     -101.67618      13187.996      13420.613      7822.0173      5598.5959      2647.3558      2664.4179      4636.5906      0             -4349.7684      0              0             -158.92211      156872.76      53.932329      53.932329      53.932329      0.719057      -577.84187      420.01895     -147.20563    
    486000   972000         549.59642      38.66521       13688.964      13599.654      7927.4557      5672.1984      2626.1426      2707.8514      4630.8348      0             -4292.6304      0              0             -157.40807      158381.65      54.104695      54.104695      54.104695      0.71220661     145.40531      279.44516     -308.85483    
    487000   974000         551.6349       574.02534      14814.006      13505.699      7956.8589      5548.8405      2615.079       2668.3675      4624.0813      0             -4358.6873      0              0             -159.52516      156279.73      53.864284      53.864284      53.864284      0.72178556     321.56766      460.52204      939.98632    
    488000   976000         549.10045      107.09909      13853.13       13609.2        7920.3017      5688.8984      2712.9445      2640.9079      4621.0879      0             -4286.0419      0              0             -159.63494      156172.26      53.851933      53.851933      53.851933      0.72228228    -492.76347      206.46171      607.59904    
    489000   978000         541.93274      237.45632      13823.411      13277.381      7816.9136      5460.4675      2540.8587      2564.6614      4620.4644      0             -4265.517       0              0             -158.11572      157672.8       54.023858      54.023858      54.023858      0.71540845     377.45991     -64.608645      399.51771    
    490000   980000         546.12158      21.039624      13587.667      13539.945      7877.334       5662.6113      2637.9946      2644.0194      4749.2856      0             -4368.6883      0              0             -160.29914      155525.16      53.777451      53.777451      53.777451      0.72528752     189.40116      138.43689     -264.71917    
    491000   982000         542.9424      -452.92353      12496.181      13541.393      7831.4771      5709.9158      2619.9779      2731.2003      4631.2432      0             -4272.5056      0              0             -157.55365      158235.31      54.088026      54.088026      54.088026      0.71286528    -844.81496     -871.67101      357.71538    
    492000   984000         550.44318     -171.86905      13160.616      13556.929      7939.6694      5617.2592      2657.5335      2566.8794      4739.4464      0             -4346.6001      0              0             -157.67674      158111.78      54.073947      54.073947      54.073947      0.71342222    -551.30115     -218.95976      254.65376    
    493000   986000         545.08526      429.5038       14418.801      13436.849      7862.386       5574.4631      2565.0844      2741.2586      4622.162       0             -4354.042       0              0             -159.03193      156764.43      53.919912      53.919912      53.919912      0.71955391     64.108158      244.67531      979.72793    
    494000   988000         550.47696      850.81228      15321.498      13384.693      7940.1567      5444.5361      2555.6657      2606.3115      4648.5388      0             -4365.9799      0              0             -159.71862      156090.44      53.842527      53.842527      53.842527      0.7226609      1102.0306      444.80434      1005.6019    
    495000   990000         549.8704      -22.804013      13420.186      13472.639      7931.4076      5541.2316      2573.3985      2593.8233      4645.4204      0             -4271.4106      0              0             -158.06859      157719.82      54.029228      54.029228      54.029228      0.71519518    -242.08188      711.25004     -537.5802     
    496000   992000         554.74224     -41.718124      13547.519      13641.613      8001.6797      5639.9335      2640.6108      2706.7162      4694.5524      0             -4401.9459      0              0             -161.20094      154655.11      53.676983      53.676983      53.676983      0.72936777    -228.8675       217.5019      -113.78877    
    497000   994000         547.65414      9.3091575      13438.922      13417.709      7899.4399      5518.2687      2703.3659      2588.096       4594.4306      0             -4367.6238      0              0             -159.55168      156253.76      53.861299      53.861299      53.861299      0.72190556     490.85661     -235.75273     -227.17641    
    498000   996000         551.74267      430.18864      14548.346      13567.887      7958.4134      5609.4739      2680.8276      2629.1229      4599.623       0             -4300.0996      0              0             -159.52816      156276.79      53.863945      53.863945      53.863945      0.72179916    -33.689624      409.4239       914.83164    
    499000   998000         551.89244      500.48304      14676.723      13530.411      7960.5737      5569.8375      2629.1289      2700.1972      4583.1831      0             -4342.6716      0              0             -158.74285      157049.91      53.952623      53.952623      53.952623      0.71824593     538.7987       573.21176      389.43865    
    500000   1000000        547.19515     -256.59876      12986.919      13568.46       7892.8194      5675.6408      2684.5291      2650.4468      4683.7851      0             -4343.1203      0              0             -160.42872      155399.54      53.762968      53.762968      53.762968      0.72587382     5.1324142     -151.36212     -623.56658    
Loop time of 1183.52 on 8 procs for 500000 steps with 4840 atoms

Performance: 73.003 ns/day, 0.329 hours/ns, 422.469 timesteps/s, 2.045 Matom-step/s
97.7% CPU use with 8 MPI tasks x 1 OpenMP threads

MPI task timing breakdown:
Section |  min time  |  avg time  |  max time  |%varavg| %total
---------------------------------------------------------------
Pair    | 810.48     | 818.24     | 829.85     |  21.5 | 69.14
Bond    | 44.914     | 45.289     | 45.768     |   4.3 |  3.83
Neigh   | 102.65     | 102.68     | 102.7      |   0.2 |  8.68
Comm    | 180.81     | 192.86     | 200.97     |  45.1 | 16.30
Output  | 1.0201     | 1.094      | 1.1605     |   4.5 |  0.09
Modify  | 15.378     | 15.486     | 15.622     |   2.1 |  1.31
Other   |            | 7.873      |            |       |  0.67

Nlocal:            605 ave         625 max         587 min
Histogram: 1 0 2 0 2 0 1 0 1 1
Nghost:           5743 ave        5782 max        5703 min
Histogram: 1 1 0 1 0 2 1 0 1 1
Neighs:         160269 ave      167513 max      151775 min
Histogram: 1 1 1 0 0 1 1 1 0 2

Total # of neighbors = 1282150
Ave neighs/atom = 264.90702
Ave special neighs/atom = 5.9504132
Neighbor list builds = 19997
Dangerous builds = 0

# --- Cleanup ---
unfix npt_fix

undump dump_npt

# --- Write Output ---
write_dump all custom npt_melt_last.dump id type mol x y z xu yu zu vx vy vz modify sort id
write_data /home/arz2/PolyJarvis/data/PE3/lammps/npt_melt/npt_melt_out.data
System init for write_data ...
Generated 1 of 1 mixed pair_coeff terms from arithmetic mixing rule

print "STAGE COMPLETE: NPT T=550.0->550.0K P=1.0->1.0atm steps=500000"
STAGE COMPLETE: NPT T=550.0->550.0K P=1.0->1.0atm steps=500000
quit
