units real
atom_style full
boundary p p p

# --- Force Field Styles ---
pair_style lj/class2/coul/long 9.5 9.5
kspace_style pppm 1e-6
dielectric 1.000000
bond_style class2
angle_style class2
dihedral_style class2
improper_style class2
special_bonds lj/coul 0 0 1
pair_modify mix sixthpower tail yes
neighbor 2.0 bin
neigh_modify delay 0 every 1 check yes
neigh_modify one 4000
# KOKKOS: package loaded via -pk kokkos on the command line

read_data /home/arz2/PolyJarvis/data/PLA3/lammps/equil/npt_prod300/npt_prod300_out.data
Reading data file ...
  orthogonal box = (4.511543 4.511543 4.511543) to (41.12158 41.12158 41.12158)
  1 by 1 by 1 MPI processor grid
  reading atoms ...
  4520 atoms
  reading velocities ...
  4520 velocities
  scanning bonds ...
  4 = max bonds/atom
  scanning angles ...
  12 = max angles/atom
  scanning dihedrals ...
  21 = max dihedrals/atom
  scanning impropers ...
  8 = max impropers/atom
  orthogonal box = (4.511543 4.511543 4.511543) to (41.12158 41.12158 41.12158)
  1 by 1 by 1 MPI processor grid
  reading bonds ...
  4510 bonds
  reading angles ...
  8000 angles
  reading dihedrals ...
  9970 dihedrals
  reading impropers ...
  4500 impropers
Finding 1-2 1-3 1-4 neighbors ...
  special bond factors lj:    0        0        1       
  special bond factors coul:  0        0        1       
     4 = max # of 1-2 neighbors
     6 = max # of 1-3 neighbors
    10 = max # of special neighbors
  special bonds CPU = 0.003 seconds
  read_data CPU = 0.240 seconds


# --- Thermo Output ---
thermo_style custom step time temp press enthalpy etotal ke pe ebond eangle edihed eimp evdwl ecoul elong etail vol lx ly lz density pxx pyy pzz
thermo_modify flush yes
thermo 100

# --- Trajectory ---
dump dump_npt all custom 1000 /home/arz2/PolyJarvis/data/PLA3/lammps/mechanical/bm_series/bm_P0/bm_P0.dump id type mol x y z ix iy iz vx vy vz

# --- Restart Checkpointing ---
restart 10000 npt_1.rst npt_2.rst

# --- Initial Velocities (optional) ---
# Velocities read from data file

# --- SHAKE Constraints ---
fix shake_fix all shake 1e-4 1000 0 m 1.008
Finding SHAKE clusters ...
     500 = # of size 2 clusters
      10 = # of size 3 clusters
     500 = # of size 4 clusters
       0 = # of frozen angles
  find clusters CPU = 0.002 seconds

# --- NPT Thermostat + Barostat (Nose-Hoover) ---
# T_damp = 100.0 fs  (heat bath coupling)
# P_damp = 1000.0 fs  (pressure bath coupling, ~10x T_damp typical)
# Ramp: T=300.0->300.0K  P=0.0->0.0atm
timestep 1.0
fix npt_fix all npt temp 300.0 300.0 100.0 iso 0.0 0.0 1000.0

run 500000
PPPM Kokkos initialization ...
  using 12-bit tables for long-range coulomb
  G vector (1/distance) = 0.34295744
  grid = 45 45 45
  stencil order = 5
  estimated absolute RMS force accuracy = 0.0002514336
  estimated relative force accuracy = 7.5718481e-07
  using double precision cuFFT
  3d grid and FFT values/proc = 140608 91125
Generated 21 of 21 mixed pair_coeff terms from sixthpower/sixthpower mixing rule
Neighbor list info ...
  update: every = 1 steps, delay = 0 steps, check = yes
  max neighbors/atom: 4000, page size: 100000
  master list distance cutoff = 11.5
  ghost atom cutoff = 11.5
  binsize = 11.5, bins = 4 4 4
  1 neighbor lists, perpetual/occasional/extra = 1 0 0
  (1) pair lj/class2/coul/long/kk, perpetual
      attributes: full, newton off, kokkos_device
      pair build: full/bin/kk/device
      stencil: full/bin/3d
      bin: kk/device
Per MPI rank memory allocation (min/avg/max) = 38.17 | 38.17 | 38.17 Mbytes
   Step          Time           Temp          Press         Enthalpy        TotEng         KinEng         PotEng         E_bond        E_angle        E_dihed        E_impro         E_vdwl         E_coul         E_long         E_tail         Volume           Lx             Ly             Lz          Density          Pxx            Pyy            Pzz      
         0   0              363.07883      753.43453      16426.956      15887.791      4162.0459      11725.745      1509.3747      3773.9681     -4089.5527      161.65787     -2505.6542      44871.786     -31995.835     -385.42939      49068.244      36.610037      36.610037      36.610037      1.2200584     -1963.265       3398.6367      824.93186    
       100   100            301.80172     -768.52038      14657.415      15207.457      3459.614       11747.843      1523.7711      3808.9125     -4056.7004      145.46541     -2504.6365      44827.65      -31996.62      -385.37262      49075.473      36.611835      36.611835      36.611835      1.2198787     -1296.1915     -528.65423     -480.71541    
       200   200            299.77319      187.21947      15275.827      15142.03       3436.3606      11705.669      1515.8044      3804.6313     -4094.4866      130.90057     -2506.6036      44845.789     -31990.366     -385.94493      49002.699      36.593729      36.593729      36.593729      1.2216903      862.05098      818.74178     -1119.1344    
       300   300            297.17836     -569.2776       14694.044      15100.001      3406.6156      11693.385      1558.3853      3737.9865     -4084.6482      157.90694     -2508.06        44825.111     -31993.297     -386.78097      48896.779      36.567344      36.567344      36.567344      1.2243367     -186.06489     -1420.1711     -101.59684    
       400   400            299.71032      933.13227      15693.403      15030.14       3435.6399      11594.5        1468.1193      3636.6414     -4095.0029      149.46444     -2454.6664      44885.158     -31995.213     -388.04166      48737.92       36.5277        36.5277        36.5277        1.2283274      631.40807      974.26238      1193.7264    
       500   500            289.16003      761.88815      15543.462      15002.064      3314.6998      11687.365      1551.1662      3742.0518     -4089.2435      164.65228     -2495.9912      44809.026     -31994.297     -388.14668      48724.734      36.524406      36.524406      36.524406      1.2286598      486.93874      1830.6734     -31.94774     
       600   600            302.06896      208.21184      15252.466      15104.323      3462.6775      11641.645      1471.4458      3773.3475     -4064.363       144.24463     -2535.0555      44847.953     -31995.927     -387.6549       48786.546      36.539844      36.539844      36.539844      1.2271031      485.08504     -1399.8526      1539.403     
       700   700            295.92833     -34.089529      15153.052      15177.367      3392.2862      11785.081      1582.3317      3755.1643     -4065.9506      143.43688     -2492.9797      44856.267     -31993.188     -386.69869      48907.183      36.569937      36.569937      36.569937      1.2240763      51.072391      284.1431      -437.48408    
       800   800            306.3256       127.76306      15242.174      15150.776      3511.4722      11639.304      1488.0652      3789.5313     -4108.1155      128.31765     -2470.8882      44804.146     -31991.752     -385.55905      49051.743      36.605933      36.605933      36.605933      1.2204688      402.9583       1469.8468     -1489.516     
       900   900            296.20459     -18.121107      15053.356      15066.353      3395.453       11670.9        1522.4258      3802.6695     -4120.1252      136.40517     -2480.936       44810.71      -32000.249     -384.55824      49179.399      36.637661      36.637661      36.637661      1.2173008      1466.5968     -2101.641       580.68084    
      1000   1000           295.51157     -821.78402      14443.26       15031.877      3387.5088      11644.368      1479.9284      3725.8334     -4110.0163      145.44767     -2435.465       44836.318     -31997.679     -385.07608      49113.264      36.621231      36.621231      36.621231      1.21894       -1863.5604      530.36508     -1132.1567    
      1100   1100           297.78584      1107.9383      15827.484      15036.55       3413.5791      11622.971      1519.2764      3791.0627     -4130.92        139.01847     -2543.1374      44842.812     -31995.142     -386.36355      48949.606      36.580508      36.580508      36.580508      1.2230154      2576.9063     -1157.9841      1904.8928    
      1200   1200           294.19273      451.40122      15386.771      15065.672      3372.3906      11693.281      1567.8033      3732.2384     -4105.6682      125.23843     -2474.7941      44844.16      -31995.697     -387.7442       48775.309      36.537039      36.537039      36.537039      1.2273858      403.85984      1453.4091     -503.0653     
      1300   1300           304.7033       421.90743      15511.808      15211.496      3492.8754      11718.621      1502.8754      3839.531      -4123.9057      143.48469     -2492.6102      44839.477     -31990.231     -387.49438      48806.755      36.544889      36.544889      36.544889      1.226595       490.24221     -644.15776      1419.6379    
      1400   1400           310.04666     -1105.1551      14427.516      15216.405      3554.1275      11662.277      1575.6506      3751.3119     -4141.8202      134.45901     -2523.9747      44851.718     -31985.067     -386.39225      48945.97       36.579602      36.579602      36.579602      1.2231063     -1072.3578     -942.45516     -1300.6522    
      1500   1500           297.89558      592.32286      15553.653      15130.37       3414.8371      11715.533      1516.4765      3836.9867     -4137.2774      148.71208     -2483.1292      44827.918     -31994.153     -385.96625      48999.993      36.593055      36.593055      36.593055      1.2217578     -1459.5996      1193.9594      2042.6088    
      1600   1600           303.88508     -546.53375      14669.003      15059.529      3483.496       11576.033      1534.5341      3767.2072     -4145.4365      135.00433     -2525.3658      44806.781     -31996.691     -386.00052      48995.643      36.591972      36.591972      36.591972      1.2218663     -322.34986     -1187.0149     -130.23652    
      1700   1700           296.12894     -589.96538      14604.856      15025.825      3394.5858      11631.239      1488.1752      3749.4321     -4125.8608      138.06953     -2482.4378      44855.532     -31991.671     -386.54271      48926.917      36.574855      36.574855      36.574855      1.2235826     -924.67466     -704.16209     -141.0594     
      1800   1800           299.55256      456.08849      15359.758      15034.185      3433.8314      11600.353      1550.2586      3698.4999     -4152.4868      140.46506     -2513.1315      44865.067     -31988.319     -386.38582      48946.784      36.579805      36.579805      36.579805      1.2230859     -473.03036      234.07891      1607.2169    
      1900   1900           301.04563     -302.97011      14929.256      15145.7        3450.9469      11694.754      1514.1691      3804.97       -4082.5853      149.09523     -2540.3892      44840.644     -31991.151     -386.07852      48985.744      36.589508      36.589508      36.589508      1.2221132      538.84886     -1783.0035      335.24431    
      2000   2000           301.78783      312.31309      15403.08       15179.947      3459.4548      11720.492      1521.9127      3825.2306     -4113.3364      142.46829     -2486.9222      44828.232     -31997.093     -386.05472      48988.764      36.59026       36.59026       36.59026       1.2220378     -127.9108       1509.3189     -444.46885    
      2100   2100           303.41919     -356.15755      14868.797      15123.096      3478.1554      11644.941      1456.0426      3740.436      -4043.7731      137.08825     -2506.3015      44853.408     -31991.96      -386.29484      48958.312      36.582677      36.582677      36.582677      1.2227979     -364.35019     -9.0280942     -695.09437    
      2200   2200           295.81841      197.5482       15200.302      15059.349      3391.0261      11668.323      1570.0273      3758.2136     -4127.4324      144.70618     -2489.6158      44808.455     -31996.03      -386.56473      48924.131      36.574161      36.574161      36.574161      1.2236522      1541.7209      421.51746     -1370.5937    
      2300   2300           296.3302       129.37055      15145.625      15053.542      3396.8928      11656.649      1530.9902      3765.6124     -4108.9846      129.64131     -2518.1069      44847.08      -31989.584     -387.5012       48805.896      36.544674      36.544674      36.544674      1.2266166     -261.94744     -234.90107      884.96017    
      2400   2400           300.48181     -64.274971      15025.414      15071.086      3444.4837      11626.602      1448.503       3737.078      -4102.322       150.91518     -2466.5564      44851.168     -31992.184     -388.15971      48723.097      36.523997      36.523997      36.523997      1.2287011      494.21026     -96.469764     -590.56541    
      2500   2500           298.31063      680.27277      15587.068      15101.123      3419.595       11681.528      1531.198       3798.2977     -4101.2199      137.22978     -2525.9852      44837.81      -31995.802     -386.11551      48981.051      36.588339      36.588339      36.588339      1.2222303      165.10219      457.32769      1418.3884    
      2600   2600           296.06803     -970.14412      14450.429      15148.392      3393.8876      11754.505      1510.0594      3817.5798     -4077.6747      142.40905     -2483.8749      44837.244     -31991.238     -383.37622      49331.029      36.675276      36.675276      36.675276      1.2135592     -1680.6596     -944.96793     -284.80482    
      2700   2700           302.61606     -838.34663      14649.161      15253.576      3468.9489      11784.627      1603.4533      3804.7935     -4119.5976      137.69089     -2466.3396      44811.064     -31986.438     -382.56875      49435.149      36.701061      36.701061      36.701061      1.2110032     -230.19789     -1258.4115     -1026.4305    
      2800   2800           305.16235     -776.34101      14726.963      15284.672      3498.1376      11786.534      1573.0018      3751.8866     -4089.562       139.804       -2435.8676      44840.287     -31993.016     -383.94271      49258.244      36.65723       36.65723       36.65723       1.2153524     -901.52486      421.83281     -1849.331     
      2900   2900           306.01748      1476.4792      16211.642      15154.178      3507.9402      11646.238      1512.8453      3716.8581     -4086.8261      132.12704     -2490.9307      44859.102     -31996.938     -385.10834      49109.151      36.620208      36.620208      36.620208      1.2190421      355.42         1734.5755      2339.442     
      3000   3000           295.70692     -1186.4693      14232.607      15080.303      3389.7481      11690.555      1564.4058      3774.0977     -4142.7551      155.36187     -2475.7806      44808.118     -31992.893     -386.04473      48990.032      36.590575      36.590575      36.590575      1.2220062     -1034.1936     -1335.5879     -1189.6265    
      3100   3100           300.05728     -575.02252      14633.911      15043.589      3439.6172      11603.971      1502.3587      3710.1739     -4078.9196      137.61829     -2524.3343      44856.058     -31998.984     -387.13635      48851.892      36.556151      36.556151      36.556151      1.2254617     -213.02985     -839.11995     -672.91776    
      3200   3200           296.24183     -26.226245      15015.719      15034.375      3395.8799      11638.495      1517.6305      3687.6196     -4108.3627      139.8789      -2450.2852      44846.685     -31994.671     -387.73313      48776.703      36.537387      36.537387      36.537387      1.2273507     -651.26243      72.919408      499.66429    
      3300   3300           300.9561       1019.152       15837.256      15111.26       3449.9205      11661.34       1551.0183      3727.3115     -4141.3369      151.55039     -2473.9818      44836.859     -31990.081     -387.19161      48844.921      36.554412      36.554412      36.554412      1.2256366     -218.65978      564.20696      2711.9089    
      3400   3400           302.63203      576.34244      15590.699      15178.774      3469.1321      11709.642      1518.1446      3807.8121     -4146.8857      135.40592     -2482.1141      44867.893     -31990.614     -385.90817      49007.367      36.594891      36.594891      36.594891      1.2215739      1597.0395     -1006.0853      1138.0731    
      3500   3500           299.19479     -744.17151      14624.139      15158.203      3429.7302      11728.473      1456.1065      3873.7068     -4110.0586      137.15501     -2493.7798      44859.96      -31994.617     -384.32717      49208.968      36.645002      36.645002      36.645002      1.2165693     -2593.8279     -533.49609      894.80947    
      3600   3600           303.55788     -627.97088      14654.345      15105.522      3479.7453      11625.777      1517.8807      3743.2002     -4092.5817      135.15619     -2523.7166      44841.934     -31996.096     -383.89586      49264.255      36.658721      36.658721      36.658721      1.2152041     -1139.7986     -2530.8853      1786.7712    
      3700   3700           299.7849       780.87016      15640.157      15080.593      3436.4948      11644.098      1454.5907      3717.4691     -4094.2064      134.71568     -2432.3601      44860.054     -31996.165     -384.90199      49135.479      36.626751      36.626751      36.626751      1.2183889      778.94581      786.34528      777.31938    
      3800   3800           293.10833     -752.04528      14537.386      15075.312      3359.96        11715.352      1556.8643      3802.6673     -4119.272       146.12932     -2465.6352      44787.572     -31992.974     -385.60461      49045.948      36.604491      36.604491      36.604491      1.220613       512.44078     -1513.4907     -1255.0859    
      3900   3900           297.40925      1005.0063      15792.598      15075.862      3409.2623      11666.6        1486.5505      3788.9019     -4111.8343      142.21398     -2490.6166      44848.438     -31997.054     -386.75047      48900.635      36.568305      36.568305      36.568305      1.2242402      303.92779     -12.273262      2723.3644    
      4000   4000           300.62942      473.10948      15422.282      15085.831      3446.1758      11639.655      1498.6318      3745.9167     -4098.695       148.15829     -2502.3848      44843.575     -31995.548     -387.84653      48762.441      36.533825      36.533825      36.533825      1.2277097      2375.1872     -1433.5752      477.71645    
      4100   4100           299.49413      1278.1075      16019.988      15112.753      3433.1617      11679.591      1511.6169      3694.4241     -4073.6176      147.57811     -2460.0072      44855.425     -31995.828     -388.56955      48671.707      36.511151      36.511151      36.511151      1.2299984     -513.69832      2762.0631      1585.9576    
      4200   4200           302.84949      1231.8275      16038.005      15162.992      3471.6248      11691.367      1438.0936      3754.7047     -4040.369       155.87329     -2509.1359      44883.352     -31991.152     -388.29025      48706.718      36.519904      36.519904      36.519904      1.2291143      1952.4674      351.33642      1391.6787    
      4300   4300           306.06448     -1247.235       14273.9        15161.743      3508.479       11653.264      1560.6005      3732.21       -4058.3678      131.33153     -2547.4586      44823.901     -31988.953     -387.46557      48810.384      36.545795      36.545795      36.545795      1.2265038     -1379.8159     -3604.8765      1242.9874    
      4400   4400           300.5409      -25.894765      15046.552      15064.983      3445.1609      11619.822      1488.8421      3719.6535     -4059.1187      139.96025     -2526.5742      44852.723     -31995.663     -387.50498      48805.42       36.544556      36.544556      36.544556      1.2266286      1256.3393     -824.96967     -509.05387    
      4500   4500           292.95041      449.77541      15336.465      15016.542      3358.1497      11658.392      1460.7636      3731.5592     -4063.4341      150.70415     -2490.872       44860.746     -31991.075     -387.76762      48772.364      36.536303      36.536303      36.536303      1.2274599      898.44825      503.39399     -52.516013    
      4600   4600           295.2428      -173.84821      14924.86       15048.315      3384.4278      11663.887      1516.8305      3745.5434     -4084.2784      159.70782     -2545.0813      44860.092     -31988.927     -388.40368      48692.492      36.516348      36.516348      36.516348      1.2294734     -430.03131     -859.30454      767.79123    
      4700   4700           302.71944      605.23223      15565.836      15137.402      3470.134       11667.268      1489.7831      3751.2381     -4092.762       140.02901     -2495.4462      44867.9       -31993.474     -389.63586      48538.508      36.477814      36.477814      36.477814      1.2333738      445.90176      423.44018      946.35474    
      4800   4800           306.44675      847.48661      15754.75       15155.394      3512.861       11642.533      1503.4751      3726.3863     -4097.7123      153.71819     -2498.0881      44852.703     -31997.949     -390.00423      48492.662      36.466326      36.466326      36.466326      1.2345398      1156.3699      977.26016      408.82975    
      4900   4900           299.4463       712.77415      15623.191      15116.885      3432.6134      11684.272      1488.1806      3726.3472     -4071.5912      147.423       -2488.4324      44875.16      -31992.815     -388.29366      48706.289      36.519796      36.519796      36.519796      1.2291251      1148.7506      807.97292      181.59889    
      5000   5000           299.63016      318.71204      15294.8        15066.995      3434.721       11632.274      1492.6143      3723.8701     -4076.6577      135.81512     -2518.802       44862.931     -31987.497     -385.88357      49010.492      36.595669      36.595669      36.595669      1.2214961      142.68318      421.3746       392.07833    
      5100   5100           295.78131     -234.53955      14853.449      15021.682      3390.6008      11631.082      1470.5212      3693.7559     -4083.5057      145.11782     -2485.3637      44881.022     -31990.466     -384.52638      49183.474      36.638673      36.638673      36.638673      1.2172        -1262.0922      284.92802      273.54554    
      5200   5200           301.06805     -674.00124      14584.663      15068.499      3451.2038      11617.295      1524.8367      3705.5273     -4124.9721      160.71407     -2487.5099      44829.548     -31990.849     -384.22375      49222.213      36.64829       36.64829       36.64829       1.216242      -1265.6021     -497.47123     -258.93035    
      5300   5300           304.6226       603.86577      15607.534      15174.953      3491.9504      11683.002      1558.6848      3792.0405     -4164.8554      142.88941     -2462.4797      44805.722     -31988.999     -385.02955      49119.2        36.622706      36.622706      36.622706      1.2187927      220.04081      385.57066      1205.9858    
      5400   5400           298.12832      1408.5557      16152.296      15148.283      3417.5051      11730.778      1493.6096      3763.5049     -4102.4538      137.37683     -2407.7773      44832.769     -31986.251     -386.95068      48875.334      36.561997      36.561997      36.561997      1.2248739      2478.2276      610.43857      1137.001     
      5500   5500           297.31091      621.72949      15544.557      15101.723      3408.1349      11693.588      1571.1702      3724.052      -4126.5266      151.0278      -2443.6557      44809.831     -31992.311     -387.24116      48838.67       36.552853      36.552853      36.552853      1.2257935      1468.5709      144.04599      252.5716     
      5600   5600           299.18512      597.59819      15470.506      15044.447      3429.6195      11614.827      1480.2959      3728.2426     -4097.4981      134.03871     -2532.7324      44887.407     -31984.927     -386.86582      48886.054      36.56467       36.56467       36.56467       1.2246053      154.71942      577.26735      1060.8078    
      5700   5700           296.37547     -778.78648      14469.555      15025.788      3397.4119      11628.376      1513.9253      3762.2282     -4116.4793      134.18645     -2511.6125      44828.351     -31982.223     -386.17418      48973.609      36.586486      36.586486      36.586486      1.222416       901.80085     -1934.8331     -1303.3272    
      5800   5800           299.0627      -339.56129      14806.962      15049.294      3428.216       11621.078      1500.4273      3734.5506     -4101.754       141.81549     -2479.7461      44814.747     -31988.962     -386.48146      48934.672      36.576788      36.576788      36.576788      1.2233886      65.049181     -179.19186     -904.54118    
      5900   5900           299.63929      220.34014      15231.485      15074.545      3434.8257      11639.719      1519.4167      3715.9476     -4108.806       144.19841     -2484.1885      44847.24      -31994.089     -387.24066      48838.734      36.552869      36.552869      36.552869      1.2257919     -620.16285      926.77303      354.41023    
      6000   6000           301.08218      874.96201      15732.612      15110.286      3451.3658      11658.921      1444.6792      3769.9796     -4082.4277      164.37015     -2525.5197      44882.166     -31994.327     -387.78637      48770.005      36.535714      36.535714      36.535714      1.2275193      1182.3923      496.21483      946.27886    
      6100   6100           296.25306     -464.25235      14817.604      15147.8        3396.0086      11751.791      1569.1945      3778.027      -4055.36        148.9517      -2543.9507      44843.308     -31988.379     -387.79577      48768.824      36.535419      36.535419      36.535419      1.227549       391.05525     -2335.5002      551.68788    
      6200   6200           305.12415     -252.70634      14972.353      15151.541      3497.6997      11653.841      1416.5718      3789.1726     -4068.2229      144.87441     -2503.2094      44867.694     -31993.039     -388.98105      48620.218      36.498272      36.498272      36.498272      1.231301       750.68344     -197.80544     -1310.997     
      6300   6300           298.71549      556.03151      15464.818      15070.673      3424.2359      11646.437      1530.2298      3724.4223     -4122.3954      152.78434     -2491.8054      44841.902     -31988.701     -389.1028       48605.005      36.494465      36.494465      36.494465      1.2316864     -434.57594      1502.7739      599.89658    
      6400   6400           292.03535     -612.84744      14556.74       14991.734      3347.6602      11644.074      1538.9271      3766.1947     -4094.0406      145.7903      -2497.5331      44773.259     -31988.524     -388.58866      48669.313      36.510553      36.510553      36.510553      1.2300589     -980.90773      154.34301     -1011.9776    
      6500   6500           295.62405      1028.1384      15750.878      15022.57       3388.7982      11633.772      1509.5839      3676.6937     -4077.3317      158.94068     -2492.1641      44852.7       -31994.65      -389.36623      48572.12       36.486232      36.486232      36.486232      1.2325203      239.04985      1558.9136      1286.4518    
      6600   6600           307.41419      16.949403      15108.006      15095.986      3523.9509      11572.036      1536.1108      3704.7439     -4144.4314      154.76608     -2495.0571      44807.502     -31991.599     -388.9264       48627.049      36.499981      36.499981      36.499981      1.231128      -553.79408     -572.77848      1177.4208    
      6700   6700           304.91271     -437.62999      14806.221      15117.277      3495.2759      11622.001      1463.1217      3741.0811     -4077.28        158.91915     -2481.9151      44810.219     -31992.144     -388.05194      48736.629      36.527378      36.527378      36.527378      1.2283599     -850.77039      50.697372     -512.81696    
      6800   6800           305.65934      1180.6781      15947.134      15105.827      3503.8347      11601.992      1527.6357      3674.4996     -4167.816       165.4464      -2422.5763      44816.726     -31991.923     -387.07777      48859.286      36.557995      36.557995      36.557995      1.2252763      848.25882      770.73678      1923.0387    
      6900   6900           298.00925     -1682.1187      13901.848      15105.575      3416.1402      11689.435      1539.7846      3758.7687     -4093.634       158.55594     -2513.0628      44831.201     -31992.179     -385.43368      49067.698      36.609901      36.609901      36.609901      1.220072      -2070.0751     -2128.8041     -847.47695    
      7000   7000           299.62381     -131.05372      14995.718      15089.611      3434.6483      11654.963      1544.6277      3739.2231     -4130.0365      152.93634     -2500.6748      44839.808     -31990.921     -384.97651      49125.968      36.624388      36.624388      36.624388      1.2186248     -1565.9955     -144.78344      1317.6178    
      7100   7100           300.75804     -280.23457      14858.114      15058.313      3447.6501      11610.662      1429.7894      3749.9985     -4086.7746      132.34699     -2450.8558      44828.474     -31992.316     -386.08441      48984.997      36.589322      36.589322      36.589322      1.2221318     -545.58154      29.858723     -324.9809     
      7200   7200           293.90172     -241.64766      14847.019      15019.144      3369.0548      11650.089      1606.362       3673.4452     -4068.4538      152.50307     -2511.4414      44793.692     -31996.018     -387.22378      48840.863      36.5534        36.5534        36.5534        1.2257384     -141.29564     -2224.8458      1641.1984    
      7300   7300           298.90676      920.39935      15697.727      15045.145      3426.4285      11618.717      1476.0899      3765.8973     -4131.2878      169.97668     -2504.2316      44839.138     -31996.866     -389.01184      48616.369      36.497309      36.497309      36.497309      1.2313985      1315.8214      264.62826      1180.7484    
      7400   7400           304.76652     -464.35253      14776.689      15105.075      3493.6002      11611.474      1494.1636      3717.5031     -4066.2478      167.3578      -2548.5218      44842.59      -31995.37      -390.01804      48490.945      36.465895      36.465895      36.465895      1.2345835     -1298.0781      528.10392     -623.08345    
      7500   7500           306.79317      964.65072      15805.619      15122.981      3516.8321      11606.149      1530.8466      3643.0969     -4054.9322      157.11572     -2502.4513      44833.409     -32000.936     -389.76281      48522.699      36.473854      36.473854      36.473854      1.2337756      2258.1476      99.88888       535.91564    
      7600   7600           299.98312      310.05554      15295.425      15075.201      3438.7671      11636.434      1488.2964      3744.6763     -4069.8821      164.5708      -2509.6977      44825.87      -32007.4       -388.32557      48702.287      36.518796      36.518796      36.518796      1.2292261      282.83297     -317.95758      965.29124    
      7700   7700           296.89956     -48.108762      14954.986      14989.243      3403.4196      11585.823      1530.7658      3651.252      -4072.7587      144.75406     -2509.2193      44842.074     -32001.044     -387.33882      48826.357      36.54978       36.54978       36.54978       1.2261026     -256.98638      286.90061     -174.24052    
      7800   7800           293.81308      1053.0024      15761.092      15009.435      3368.0387      11641.397      1478.8566      3687.5419     -4062.7275      151.46926     -2465.0884      44842.452     -31991.107     -386.39485      48945.64       36.57952       36.57952       36.57952       1.2231145      144.31622      899.80834      2114.8826    
      7900   7900           303.87591     -1117.8604      14322.729      15122.072      3483.3909      11638.681      1486.8103      3752.6223     -4083.1644      156.90421     -2566.4547      44884.138     -31992.174     -385.72304      49030.889      36.600745      36.600745      36.600745      1.2209879     -1642.7765     -1756.914       46.109178    
      8000   8000           305.99457      1296.3883      16075.243      15149.117      3507.6775      11641.439      1459.2541      3732.1978     -4078.1755      147.18811     -2507.6463      44876.537     -31987.916     -386.08789      48984.555      36.589212      36.589212      36.589212      1.2221428      2942.907      -219.4382       1165.696     
      8100   8100           301.4243      -473.94777      14780.624      15118.479      3455.2876      11663.191      1545.0821      3692.2205     -4074.3171      167.02739     -2504.9193      44826.209     -31988.111     -386.92006      48879.201      36.562962      36.562962      36.562962      1.224777       480.31522     -1316.8832     -585.27533    
      8200   8200           295.84772     -765.31016      14506.937      15052.515      3391.3622      11661.153      1615.4127      3722.175      -4124.8569      136.97179     -2549.2404      44853.482     -31992.791     -386.90291      48881.368      36.563502      36.563502      36.563502      1.2247227     -1125.4522     -438.27748     -732.20078    
      8300   8300           297.28826     -641.78578      14590.372      15047.843      3407.8753      11639.968      1445.4654      3767.0437     -4092.4988      146.41065     -2482.2116      44847.482     -31991.724     -386.94355      48876.234      36.562222      36.562222      36.562222      1.2248514     -1184.5547     -1356.7152      615.9126     
      8400   8400           302.45615      1226.1794      15983.651      15109.427      3467.116       11642.311      1544.0695      3743.185      -4129.0124      135.77912     -2493.7832      44829.188     -31987.116     -386.85886      48886.933      36.564889      36.564889      36.564889      1.2245833      2902.336      -398.94467      1175.147     
      8500   8500           305.26579     -582.67055      14772.922      15189.02       3499.3234      11689.696      1551.0938      3763.4835     -4140.7203      153.64346     -2478.0086      44834.171     -31993.967     -386.23256      48966.207      36.584643      36.584643      36.584643      1.2226008      457.1876      -1109.8041     -1095.3952    
      8600   8600           303.63731      17.361443      15169.46       15157.031      3480.6558      11676.375      1487.8073      3833.8499     -4144.7689      141.29009     -2482.3619      44833.35      -31992.791     -385.27342      49088.108      36.614977      36.614977      36.614977      1.2195647      461.11803     -358.04737     -50.986333    
      8700   8700           295.67417     -842.81458      14455.105      15058.115      3389.3726      11668.743      1552.1963      3743.4924     -4141.7174      153.5697      -2537.1474      44885.032     -31986.683     -385.50349      49058.812      36.607691      36.607691      36.607691      1.2202929     -343.3462      -1169.6157     -1015.4819    
      8800   8800           295.91562      426.9415       15345.876      15041.204      3392.1405      11649.063      1468.8586      3766.1698     -4112.9084      151.2381      -2469.2407      44837.102     -31992.156     -386.50603      48931.562      36.576013      36.576013      36.576013      1.2234664     -723.54716      1032.8633      971.50832    
      8900   8900           302.0065       12.175606      15072.241      15063.582      3461.9615      11601.62       1459.519       3714.6744     -4067.1675      164.5257      -2528.5461      44850.664     -31992.049     -387.80599      48767.538      36.535098      36.535098      36.535098      1.2275814     -351.14851     -769.19264      1156.868     
      9000   9000           298.78439      71.682226      15172.713      15121.909      3425.0258      11696.884      1550.4698      3817.6681     -4089.5167      143.96118     -2548.5699      44817.352     -31994.481     -389.16936      48596.692      36.492384      36.492384      36.492384      1.2318971     -1316.4002      1505.9786      25.468268    
      9100   9100           306.20697      928.59855      15841.729      15185.866      3510.1123      11675.753      1504.6881      3747.5317     -4061.2599      159.28109     -2490.3783      44810.793     -31994.902     -390.51322      48429.457      36.450476      36.450476      36.450476      1.236151       1826.9516     -921.46925      1880.3133    
      9200   9200           310.0392       1110.9706      16056.978      15270.993      3554.042       11716.952      1524.9847      3806.8446     -4132.2019      163.44669     -2496.0648      44839.483     -31989.541     -389.86096      48510.483      36.470792      36.470792      36.470792      1.2340863      284.76376      620.52016      2427.628     
      9300   9300           305.73692     -945.27265      14516.107      15189.484      3504.724       11684.76       1528.1268      3777.3291     -4110.8858      162.64801     -2502.66        44815.007     -31984.805     -387.18624      48845.598      36.554581      36.554581      36.554581      1.2256196     -1448.4807      325.51057     -1712.8478    
      9400   9400           304.37279     -270.84052      14905.738      15099.602      3489.0868      11610.515      1476.699       3755.4261     -4080.4774      140.47647     -2560.3063      44870.192     -31991.494     -385.33475      49080.296      36.613034      36.613034      36.613034      1.2197588     -1694.1052     -171.54238      1053.126     
      9500   9500           294.35045      697.23777      15556.994      15057.49       3374.1986      11683.292      1483.5943      3795.2927     -4102.5854      139.16666     -2497.7727      44856.016     -31990.42      -385.00238      49122.667      36.623567      36.623567      36.623567      1.2187067      322.5811       715.08715      1054.0451    
      9600   9600           297.66767     -681.38605      14569.511      15057.451      3412.2246      11645.227      1567.497       3707.3949     -4135.9554      134.207       -2470.4592      44830.954     -31988.411     -385.16604      49101.793      36.618379      36.618379      36.618379      1.2192248     -1272.6324     -199.22331     -572.30243    
      9700   9700           298.3015      -1205.5849      14251.719      15113.218      3419.4903      11693.728      1546.5798      3799.7053     -4122.4755      153.23531     -2478.3152      44789.365     -31994.367     -385.97974      48998.28       36.592629      36.592629      36.592629      1.2218005     -1881.0019     -933.21105     -802.54176    
      9800   9800           303.20056      551.39062      15591.949      15199.795      3475.6492      11724.146      1558.9896      3753.0396     -4111.2598      150.73083     -2429.0758      44799.167     -31997.445     -387.81515      48766.386      36.53481       36.53481       36.53481       1.2276104      518.13067      137.47052      998.57067    
      9900   9900           306.22496      412.89148      15471.403      15178.722      3510.3185      11668.403      1498.5828      3749.4394     -4065.2448      139.28219     -2484.0987      44831.045     -32000.603     -389.10128      48605.195      36.494512      36.494512      36.494512      1.2316816      413.51596      1176.5067     -351.34822    
     10000   10000          295.54947      382.69812      15325.538      15054.088      3387.9432      11666.145      1545.5106      3739.5842     -4132.252       133.8584      -2473.5174      44845.756     -31992.795     -388.85492      48635.988      36.502217      36.502217      36.502217      1.2309017      643.71273      96.863862      407.51778    
     10100   10100          300.16951     -72.460139      15010.976      15062.607      3440.9037      11621.703      1525.9914      3740.0954     -4101.3746      119.2469      -2508.6131      44843.95      -31997.593     -387.08869      48857.907      36.557651      36.557651      36.557651      1.2253108     -233.27418      115.56344     -99.669671    
     10200   10200          298.97333     -576.76802      14695.798      15108.216      3427.1917      11681.024      1517.1902      3823.7374     -4084.2069      146.82564     -2533.8618      44809.506     -31998.166     -385.73124      49029.846      36.600485      36.600485      36.600485      1.2210139     -1703.6142     -253.78395      227.09409    
     10300   10300          302.89312     -146.2415       15073.967      15178.566      3472.125       11706.441      1581.1878      3696.109      -4109.706       151.41888     -2471.9163      44850.182     -31990.835     -385.62531      49043.314      36.603836      36.603836      36.603836      1.2206786      152.06021     -946.39919      355.61448    
     10400   10400          308.99097     -1348.4777      14223.599      15186.864      3542.0258      11644.838      1427.3274      3828.1211     -4067.6508      129.84502     -2548.4941      44870.053     -31994.363     -386.11743      48980.808      36.588279      36.588279      36.588279      1.2222363     -1909.0237     -1151.6617     -984.74785    
     10500   10500          296.95887      706.72631      15554.314      15050.162      3404.0995      11646.062      1528.3         3692.4334     -4119.7458      160.10572     -2496.1242      44878.351     -31997.258     -386.64322      48914.198      36.571686      36.571686      36.571686      1.2239007      572.48476      148.57903      1399.1152    
     10600   10600          299.21815      90.981796      15076.764      15011.845      3429.998       11581.847      1444.7686      3754.3592     -4129.8617      142.18822     -2495.5285      44857.124     -31991.203     -386.54892      48926.132      36.57466       36.57466       36.57466       1.2236022      578.23265      429.12792     -734.41518    
     10700   10700          299.61421     -222.52627      14882.722      15041.564      3434.5382      11607.026      1509.9514      3722.0234     -4115.5799      145.21358     -2484.1245      44821.527     -31991.985     -386.40051      48944.924      36.579342      36.579342      36.579342      1.2231324     -1586.466      -474.0999       1392.9871    
     10800   10800          298.04108      124.61692      15212.369      15123.415      3416.505       11706.91       1533.9839      3807.5309     -4105.4756      142.63958     -2517.5851      44838.138     -31992.322     -386.39692      48945.378      36.579455      36.579455      36.579455      1.2231211      171.25238      458.17621     -255.57782    
     10900   10900          299.33644      1079.7116      15935.522      15165.043      3431.354       11733.689      1531.3706      3722.9788     -4092.0897      160.09214     -2447.5838      44852.676     -31993.755     -386.51654      48930.23       36.575681      36.575681      36.575681      1.2234997      1204.4344      724.15804      1310.5422    
     11000   11000          304.38073     -161.6385       15026.015      15141.579      3489.1778      11652.401      1539.4199      3708.3595     -4083.1929      146.94416     -2481.9157      44817.43      -31994.643     -385.7832       49023.243      36.598842      36.598842      36.598842      1.2211783     -915.36298      50.757766      379.68972    
     11100   11100          298.14245      1159.0215      15819.849      14990.434      3417.6671      11572.767      1487.9236      3644.6277     -4099.1133      149.3308      -2442.3261      44828.056     -31995.732     -385.42611      49068.662      36.610141      36.610141      36.610141      1.220048       1361.0704      1079.954       1036.0401    
     11200   11200          300.83311     -878.56689      14385.054      15014.878      3448.5107      11566.367      1477.8165      3667.3879     -4100.6277      145.25943     -2460.6257      44829.977     -31992.82      -384.74876      49155.047      36.631613      36.631613      36.631613      1.2179039     -657.67604     -2112.4401      134.41549    
     11300   11300          300.298        1359.9033      16069.286      15094.21       3442.3766      11651.833      1518.3924      3672.522      -4108.6844      140.37383     -2423.2377      44851.087     -31998.62      -384.67204      49164.851      36.634048      36.634048      36.634048      1.217661       241.99213      2325.1693      1512.5486    
     11400   11400          302.55596     -662.95029      14673.833      15149.848      3468.26        11681.588      1520.726       3721.7996     -4109.9192      148.33029     -2438.2866      44831.587     -31992.65      -384.13311      49233.828      36.651172      36.651172      36.651172      1.2159551      83.01324      -1865.5659     -206.29819    
     11500   11500          304.55739     -45.247847      15123.285      15155.768      3491.2028      11664.566      1493.2511      3803.0881     -4125.5198      130.21514     -2487.1226      44845.042     -31994.389     -384.20236      49224.954      36.64897       36.64897       36.64897       1.2161743     -415.88937      811.1896      -531.04377    
     11600   11600          297.84655     -338.98635      14825.969      15068.861      3414.2752      11654.586      1528.5978      3755.6697     -4126.4637      129.31046     -2472.7964      44826.617     -31986.348     -384.93659      49131.062      36.625654      36.625654      36.625654      1.2184984      273.76612      63.422547     -1354.1477    
     11700   11700          292.8791       364.14204      15237.937      14977.793      3357.3322      11620.461      1498.8679      3749.9246     -4170.7418      153.92565     -2462.9441      44836.386     -31984.957     -386.08099      48985.431      36.58943       36.58943       36.58943       1.222121       786.42125     -726.98732      1032.9922    
     11800   11800          296.99719     -158.73468      14885.863      14999.064      3404.5388      11594.525      1522.4784      3727.6339     -4128.0493      134.56399     -2514.3039      44843.495     -31991.294     -386.76142      48899.25       36.56796       36.56796       36.56796       1.2242748     -993.00035      588.56537     -71.769055    
     11900   11900          300.58571      419.57289      15353.932      15055.285      3445.6746      11609.611      1524.1471      3681.3705     -4108.1557      146.43302     -2513.7506      44871.686     -31992.119     -387.49981      48806.071      36.544718      36.544718      36.544718      1.2266122     -114.26606      567.50881      805.47591    
     12000   12000          299.62883      413.72051      15379.41       15084.906      3434.7058      11650.201      1537.946       3730.592      -4121.2588      151.60999     -2515.9502      44860.257     -31992.995     -387.4696       48809.877      36.545668      36.545668      36.545668      1.2265166      129.37052      747.76672      364.02429    
     12100   12100          302.27837     -446.75332      14781.57       15099.872      3465.0779      11634.794      1474.4276      3737.3221     -4102.6437      149.30316     -2501.0514      44873.424     -31995.989     -387.12439      48853.402      36.556528      36.556528      36.556528      1.2254238     -961.22681     -741.61644      362.58328    
     12200   12200          298.77581     -287.65817      14866.605      15071.776      3424.9275      11646.848      1532.7526      3767.6505     -4114.9999      144.90913     -2511.4626      44816.834     -31988.836     -386.70672      48906.167      36.569684      36.569684      36.569684      1.2241017      765.7297      -473.68241     -1155.0218    
     12300   12300          297.64396      1110.3429      15762.522      14968.965      3411.9527      11557.012      1466.9679      3622.6257     -4100.1134      161.7713      -2478.1137      44877.925     -31994.051     -385.92263      49005.53       36.594434      36.594434      36.594434      1.2216197      1069.5575      1171.7733      1089.698     
     12400   12400          292.7341      -528.60239      14559.451      14938.969      3355.6701      11583.299      1463.9399      3673.9239     -4076.8466      146.73373     -2483.524       44851.952     -31992.88      -384.1651       49229.728      36.650155      36.650155      36.650155      1.2160563     -1227.857       556.40397     -914.35411    
     12500   12500          293.57657     -947.66817      14347.779      15028.772      3365.3275      11663.444      1508.8159      3690.3011     -4095.6106      167.2672      -2502.3524      44884.849     -31989.826     -383.82674      49273.127      36.660921      36.660921      36.660921      1.2149853     -2053.0849      25.261695     -815.18135    
     12600   12600          299.26325      447.66284      15396.98       15075.717      3430.515       11645.202      1478.8421      3738.11       -4045.9768      143.02522     -2527.1064      44855.522     -31997.215     -384.33551      49207.9        36.644737      36.644737      36.644737      1.2165958     -893.46951      553.6388       1682.8192    
     12700   12700          301.05994     -993.94507      14411.113      15124.001      3451.1108      11672.891      1459.1606      3714.2511     -4059.1688      158.69745     -2480.9047      44874.843     -31993.988     -384.55835      49179.386      36.637658      36.637658      36.637658      1.2173011     -1426.9357     -424.38949     -1130.51      
     12800   12800          304.8967      -471.18057      14821.237      15159.227      3495.0925      11664.135      1485.118       3716.1248     -4099.6404      160.7792      -2469.4297      44867.7       -31996.518     -384.50751      49185.889      36.639272      36.639272      36.639272      1.2171402     -917.34279      496.53853     -992.73746    
     12900   12900          297.37158      458.72388      15464.356      15135.366      3408.8304      11726.535      1487.3707      3745.7436     -4100.5554      156.04233     -2449.495       44878.575     -31991.146     -384.58247      49176.301      36.636892      36.636892      36.636892      1.2173775     -1103.1372     -860.53724      3339.8461    
     13000   13000          299.14194      47.258438      15063.122      15029.273      3429.1244      11600.148      1505.3496      3686.3208     -4116.1562      162.90097     -2488.713       44843.696     -31993.25      -385.08498      49112.129      36.620948      36.620948      36.620948      1.2189682     -588.33909      929.78742     -199.67301    
     13100   13100          302.81518      496.93069      15364.042      15008.507      3471.2315      11537.275      1475.1143      3605.6951     -4128.5505      169.07106     -2473.8315      44879.781     -31990.004     -385.50862      49058.159      36.607529      36.607529      36.607529      1.2203092     -177.85366      234.48532      1434.1604    
     13200   13200          305.72563      122.02188      15160.763      15073.431      3504.5946      11568.836      1421.5263      3730.3455     -4151.1958      148.48809     -2442.5358      44855.322     -31993.114     -385.3764       49074.991      36.611715      36.611715      36.611715      1.2198906      383.01458     -735.68906      718.74011    
     13300   13300          306.13929     -303.1103       14938.048      15155.325      3509.3364      11645.989      1525.3577      3714.0868     -4115.3979      155.17358     -2494.0571      44862.969     -32002.143     -384.77607      49151.558      36.630746      36.630746      36.630746      1.2179903     -651.61805     -396.57054      138.85767    
     13400   13400          303.17999     -1033.1539      14436.261      15177.545      3475.4135      11702.131      1464.9913      3779.0573     -4070.3977      160.30825     -2488.8897      44858.539     -32001.477     -384.41652      49197.53       36.642163      36.642163      36.642163      1.2168522      211.08632     -2091.6512     -1218.8968    
     13500   13500          300.86396     -209.45212      14984.261      15134.164      3448.8643      11685.3        1524.8886      3679.9497     -4055.353       168.10487     -2481.2305      44839.775     -31990.835     -385.3867       49073.68       36.611389      36.611389      36.611389      1.2199232     -431.53083     -750.48523      553.6597     
     13600   13600          295.21381      1605.8764      16226.923      15083.381      3384.0955      11699.285      1493.4823      3730.3468     -4099.0042      143.2043      -2425.6903      44856.437     -31999.491     -387.33012      48827.454      36.550054      36.550054      36.550054      1.226075       848.03545      860.67049      3108.9232    
     13700   13700          300.43261      552.96725      15439.289      15046.388      3443.9197      11602.468      1447.3103      3726.5537     -4096.9914      143.33136     -2468.2582      44847.651     -31997.129     -388.18367      48720.09       36.523245      36.523245      36.523245      1.2287769      393.09171     -429.48553      1695.2956    
     13800   13800          298.67768     -536.58367      14605.766      14987.146      3423.8025      11563.344      1497.1382      3705.497      -4105.7784      148.57536     -2526.2436      44838.022     -31993.867     -388.06131      48735.452      36.527084      36.527084      36.527084      1.2283896     -1149.3338      459.69015     -920.10738    
     13900   13900          291.4833       1753.7778      16185.118      14936.113      3341.332       11594.781      1442.9556      3710.8326     -4085.4357      143.71767     -2488.9995      44866.16      -31994.45      -387.28594      48833.023      36.551444      36.551444      36.551444      1.2259352      1430.1694      1459.7474      2371.4167    
     14000   14000          298.82747     -1694.4189      13801.092      15011.592      3425.5196      11586.072      1587.0121      3748.4813     -4182.8313      135.11116     -2529.9603      44817.606     -31989.347     -386.07985      48985.575      36.589466      36.589466      36.589466      1.2221174     -426.49616     -2383.678      -2273.0825    
     14100   14100          305.44892     -385.45065      14837.17       15112.454      3501.4227      11611.031      1534.6819      3734.0349     -4126.776       136.99387     -2519.2148      44844.608     -31993.297     -386.19763      48970.636      36.585746      36.585746      36.585746      1.2224902      124.16278     -813.96924     -466.5455     
     14200   14200          304.92454     -175.27225      15008.461      15133.403      3495.4116      11637.992      1540.7546      3743.6531     -4099.2655      150.3572      -2508.4255      44811.884     -32000.966     -386.92276      48878.86       36.562877      36.562877      36.562877      1.2247856      237.84919     -1493.8574      730.1914     
     14300   14300          299.22167      635.88042      15565.525      15113.4        3430.0384      11683.362      1529.2602      3664.5226     -4103.2222      143.30569     -2434.5392      44880.88      -31996.845     -387.91653      48753.642      36.531627      36.531627      36.531627      1.2279313      460.48651      338.08771      1109.067     
     14400   14400          298.16623      801.44771      15596.473      15025.638      3417.9397      11607.698      1483.1749      3695.9272     -4086.2923      146.72069     -2467.2851      44834.535     -31999.082     -387.24499      48838.187      36.552732      36.552732      36.552732      1.2258056      772.54095      741.09539      890.70679    
     14500   14500          295.06108      15.972836      14991.506      14980.097      3382.3447      11597.752      1569.9699      3663.7177     -4158.9609      147.50472     -2468.6357      44839.007     -31994.851     -386.14261      48977.614      36.587484      36.587484      36.587484      1.222316      -493.10062      976.87056     -435.85143    
     14600   14600          297.27177      470.48986      15371.105      15034.336      3407.6863      11626.649      1471.1375      3719.3764     -4129.2762      153.82264     -2453.2001      44860.546     -31995.757     -385.33568      49080.177      36.613005      36.613005      36.613005      1.2197617     -286.26971     -179.31523      1877.0545    
     14700   14700          302.23977     -442.78045      14849.734      15167.931      3464.6355      11703.295      1553.9605      3721.2058     -4102.8709      145.72188     -2464.4538      44843.005     -31993.274     -383.80844      49275.476      36.661504      36.661504      36.661504      1.2149273     -512.24292     -97.506443     -718.592      
     14800   14800          301.03094     -1524.4766      14064.664      15160.791      3450.7785      11710.012      1520.667       3837.0563     -4167.7904      144.34467     -2466.6954      44837.873     -31995.443     -383.60246      49301.935      36.668065      36.668065      36.668065      1.2142753     -2253.4077     -964.12449     -1355.8977    
     14900   14900          297.78704      61.900774      15139.535      15095.148      3413.5929      11681.555      1516.7541      3770.8948     -4117.064       155.75114     -2509.891       44859.155     -31994.045     -384.64694      49168.059      36.634845      36.634845      36.634845      1.2175816     -607.2215      -365.77388      1158.6977    
     15000   15000          297.82332      1411.377       16039.194      15031.193      3414.0088      11617.184      1461.6636      3714.9796     -4090.583       153.97091     -2489.2707      44867.638     -32001.214     -386.19213      48971.333      36.58592       36.58592       36.58592       1.2224728      1420.7558      2003.7945      809.58052    
     15100   15100          295.41786      236.91063      15188.271      15019.519      3386.4346      11633.084      1497.2107      3686.7889     -4110.7821      146.40632     -2462.8696      44871.683     -31995.353     -387.2196       48841.389      36.553531      36.553531      36.553531      1.2257252      265.66572      1432.9531     -987.88688    
     15200   15200          302.1084      -1619.5396      13933.636      15086.698      3463.1296      11623.568      1551.2687      3687.7531     -4092.7682      146.60511     -2494.5049      44814.519     -31989.305     -387.40047      48818.586      36.547842      36.547842      36.547842      1.2262977     -1963.8708     -2125.5601     -769.1879     
     15300   15300          302.91757      2420.8086      16909.349      15186.07       3472.4052      11713.665      1513.5797      3717.0252     -4108.1269      156.98816     -2432.5046      44860.088     -31993.385     -387.45912      48811.197      36.545997      36.545997      36.545997      1.2264834      1177.4632      2840.8909      3244.0716    
     15400   15400          300.55338     -1486.6894      14114.886      15175.621      3445.3041      11730.317      1534.4907      3757.8603     -4055.8885      148.04239     -2502.1792      44841.411     -31993.419     -386.57559      48922.756      36.573818      36.573818      36.573818      1.2236866     -1141.7041     -72.762097     -3245.602     
     15500   15500          299.46682      200.69867      15224.806      15081.455      3432.8486      11648.607      1521.1944      3727.1135     -4105.8466      159.07974     -2503.256       44840.561     -31990.24      -386.16026      48975.375      36.586926      36.586926      36.586926      1.2223719      1137.7327     -615.13637      79.499711    
     15600   15600          301.19186     -650.96906      14578.627      15043.802      3452.6231      11591.179      1455.6172      3732.1167     -4105.7042      175.17855     -2518.8655      44839.778     -31986.941     -385.98063      48998.167      36.592601      36.592601      36.592601      1.2218033     -765.89535     -997.29411     -189.71772    
     15700   15700          299.15305     -1076.8259      14282.688      15051.897      3429.2518      11622.645      1583.6175      3695.6873     -4140.8626      143.53942     -2527.5606      44858.443     -31990.22      -386.12034      48980.438      36.588187      36.588187      36.588187      1.2222456     -541.00652     -2866.9849      177.51385    
     15800   15800          305.0612      -199.90743      14926.497      15069.286      3496.9781      11572.308      1508.9932      3722.1191     -4149.3765      138.09799     -2486.6529      44836.057     -31996.93      -386.14989      48976.69       36.587254      36.587254      36.587254      1.2223391     -673.54297      258.36226     -184.54159    
     15900   15900          295.92438      1721.4899      16337.192      15107.715      3392.2409      11715.474      1497.0658      3706.4225     -4090.1958      148.88996     -2405.7349      44856.785     -31997.759     -386.19356      48971.152      36.585875      36.585875      36.585875      1.2224773      3093.5724     -356.73195      2427.6293    
     16000   16000          300.75313     -1002.4026      14480.425      15198.406      3447.5939      11750.813      1564.665       3843.393      -4114.99        140.3191      -2499.2459      44815.398     -31998.727     -385.07916      49112.871      36.621133      36.621133      36.621133      1.2189497     -792.92007     -2654.9537      440.66605    
     16100   16100          303.9159      -55.780603      15154.531      15194.551      3483.8493      11710.702      1539.4955      3759.9058     -4107.1456      142.47589     -2480.0146      44853.305     -31997.32      -384.43874      49194.687      36.641457      36.641457      36.641457      1.2169225     -363.64353     -1098.3729      1294.6747    
     16200   16200          301.1584       161.74924      15208.553      15092.356      3452.2395      11640.117      1517.4         3766.9329     -4157.821       143.54728     -2483.4071      44852.093     -31998.628     -383.94574      49257.855      36.657133      36.657133      36.657133      1.2153619      546.00395     -1945.8426      1885.0864    
     16300   16300          293.32545     -994.7658       14347.434      15062.449      3362.4488      11700          1553.5344      3807.8929     -4136.0669      157.94844     -2487.4708      44802.121     -31997.959     -383.73104      49285.415      36.663969      36.663969      36.663969      1.2146823     -2514.7148     -201.71362     -267.86903    
     16400   16400          300.49989      240.23971      15259.477      15086.999      3444.6909      11642.308      1508.6376      3708.3486     -4134.8833      137.33473     -2456.5524      44874.538     -31995.115     -384.17618      49228.308      36.649802      36.649802      36.649802      1.2160914     -64.377974      702.37335      82.72374     
     16500   16500          297.35075      199.04522      15261.357      15118.566      3408.5917      11709.974      1494.465       3768.0996     -4098.035       147.2137      -2494.2275      44886.178     -31993.72      -384.4767       49189.83       36.640251      36.640251      36.640251      1.2170427     -160.91004      805.88771     -47.84201     
     16600   16600          304.14088      733.96634      15666.264      15140.705      3486.4284      11654.276      1492.8751      3717.2151     -4110.2504      148.18391     -2474.7196      44877.481     -31996.509     -385.1906       49098.663      36.617601      36.617601      36.617601      1.2193025     -617.9299       342.09454      2477.7344    
     16700   16700          302.17235      802.73419      15722.883      15148.979      3463.8626      11685.117      1534.3804      3691.4409     -4094.244       145.89476     -2458.8811      44862.214     -31995.689     -385.793        49021.997      36.598532      36.598532      36.598532      1.2212094      379.67642      837.14818      1191.378     
     16800   16800          295.82544     -89.743497      15014.485      15078.544      3391.1068      11687.437      1495.2467      3791.2308     -4094.5172      138.73522     -2521.6233      44871.321     -31992.956     -386.4032       48944.582      36.579257      36.579257      36.579257      1.2231409     -451.08243     -812.40944      994.26137    
     16900   16900          297.4295      -470.60893      14710.145      15045.572      3409.4944      11636.077      1547.0376      3730.2464     -4134.5785      159.14142     -2487.6878      44816.677     -31994.759     -386.97547      48872.203      36.561217      36.561217      36.561217      1.2249524     -2272.3752      387.68368      472.86475    
     17000   17000          298.35588      1407.4824      16077.836      15075.98       3420.1137      11655.867      1475.2845      3763.5599     -4113.0554      155.01865     -2460.6973      44834.815     -31999.058     -387.48877      48807.463      36.545065      36.545065      36.545065      1.2265772     -540.58795      2216.2902      2546.7451    
     17100   17100          300.99404     -553.24199      14772.157      15165.919      3450.3555      11715.564      1504.4055      3801.8557     -4076.9328      147.21902     -2512.0649      44848.943     -31997.862     -387.52746      48802.589      36.543849      36.543849      36.543849      1.2266997     -70.404059     -606.02151     -983.30039    
     17200   17200          303.30132      656.48536      15684.54       15217.045      3476.8042      11740.24       1540.1003      3833.2224     -4117.6969      131.66124     -2504.007       44855.456     -31998.496     -387.31879      48828.882      36.550411      36.550411      36.550411      1.2260392     -286.44999      812.01412      1443.8919    
     17300   17300          297.2702      -241.24675      14960.432      15132.428      3407.6683      11724.76       1532.3419      3849.3077     -4094.3388      139.02519     -2543.3889      44833.852     -31992.039     -386.86954      48885.584      36.564553      36.564553      36.564553      1.2246171     -1059.605       1168.8079     -832.94319    
     17400   17400          300.87586     -673.39418      14586.469      15065.782      3449.0007      11616.781      1547.5045      3742.7022     -4152.6025      134.2616      -2509.0918      44848.213     -31994.207     -387.49977      48806.077      36.54472       36.54472       36.54472       1.2266121     -1669.3797     -1573.8086      1223.0057    
     17500   17500          298.57947      459.17948      15368.113      15041.603      3422.6767      11618.927      1494.4078      3761.3909     -4114.1789      143.38281     -2508.1555      44834.446     -31992.366     -387.88886      48757.12       36.532496      36.532496      36.532496      1.2278437      293.26233     -697.95574      1782.2318    
     17600   17600          299.84358     -191.24243      14914.79       15051          3437.1674      11613.832      1517.9113      3769.8963     -4116.3034      139.71709     -2538.4322      44836.835     -31995.791     -387.25626      48836.767      36.552378      36.552378      36.552378      1.2258412     -996.72975      1493.9196     -1070.9171    
     17700   17700          303.35809     -1369.4725      14155.582      15133.148      3477.455       11655.693      1524.6732      3746.1843     -4110.8006      154.6881      -2527.93        44860.622     -31991.744     -386.39246      48945.943      36.579596      36.579596      36.579596      1.2231069     -2177.0199     -2213.8861      282.48862    
     17800   17800          297.87189      39.329163      15207.37       15179.28       3414.5656      11764.715      1551.492       3813.7598     -4110.048       154.65312     -2494.4652      44848.281     -31998.958     -386.18447      48972.304      36.586161      36.586161      36.586161      1.2224485      206.31721      449.33084     -537.66055    
     17900   17900          300.50649     -250.79254      14947.359      15126.393      3444.7665      11681.626      1538.393       3774.2543     -4106.7404      141.12361     -2554.9132      44884.251     -31994.742     -386.36894      48948.923      36.580338      36.580338      36.580338      1.2230325     -902.4172       298.87078     -148.8312     
     18000   18000          296.26036     -352.81662      14743.041      14994.698      3396.0923      11598.606      1541.3814      3723.7379     -4141.9637      150.8876      -2529.201       44846.685     -31992.921     -386.68718      48908.639      36.5703        36.5703        36.5703        1.2240398      565.42062     -759.91888     -863.95161    
     18100   18100          296.25964     -220.46793      14851.479      15008.384      3396.084       11612.3        1425.9569      3752.6371     -4069.1098      143.87437     -2507.0038      44867.01      -32001.065     -387.55142      48799.572      36.543096      36.543096      36.543096      1.2267756      60.256485     -868.09659      146.43632    
     18200   18200          300.36322     -425.43615      14780.054      15082.666      3443.1242      11639.541      1593.9087      3771.203      -4144.0586      146.53298     -2570.0422      44842.607     -32000.609     -387.76678      48772.469      36.536329      36.536329      36.536329      1.2274573     -521.52031     -241.39785     -513.39029    
     18300   18300          305.95107      593.53774      15539.061      15117.64       3507.1789      11610.461      1397.8234      3768.9969     -4067.2195      148.0807      -2522.3579      44879.539     -31994.402     -388.4662       48684.657      36.514389      36.514389      36.514389      1.2296712      351.70411      627.55202      801.35711    
     18400   18400          302.60296     -214.95799      14984.726      15137.665      3468.7989      11668.866      1518.5532      3748.9202     -4070.184       151.45943     -2542.2095      44860.744     -31998.417     -387.66537      48785.228      36.539515      36.539515      36.539515      1.2271363     -85.271073      26.066199     -585.6691     
     18500   18500          301.91715     -389.9798       14863.897      15142.153      3460.9372      11681.215      1570.6853      3771.3279     -4110.1347      145.41459     -2528.4949      44830.322     -31997.905     -386.56182      48924.5        36.574253      36.574253      36.574253      1.223643      -1133.9289      455.85497     -491.86547    
     18600   18600          297.55884      183.06636      15204.513      15073.717      3410.9771      11662.74       1513.573       3719.8145     -4080.2806      136.5852      -2485.3906      44850.3       -31991.861     -386.04244      48990.322      36.590648      36.590648      36.590648      1.221999      -335.40204      1719.939      -835.33784    
     18700   18700          296.2723      -981.93155      14310.58       15011.674      3396.2292      11615.445      1552.8498      3758.4154     -4145.5892      163.59743     -2541.5091      44826.047     -31998.366     -386.30113      48957.516      36.582478      36.582478      36.582478      1.2228178     -2519.6876     -358.10976     -67.997268    
     18800   18800          295.64032      453.48184      15313.746      14991.001      3388.9846      11602.016      1476.9778      3788.588      -4137.5285      141.71516     -2531.0613      44858.443     -31995.118     -387.54414      48800.489      36.543325      36.543325      36.543325      1.2267525      1056.7209      409.8533      -106.12867    
     18900   18900          307.29472      254.48876      15247.029      15065.997      3522.5813      11543.416      1484.5014      3756.3569     -4144.0881      137.89793     -2535.767       44844.604     -32000.089     -387.73463      48776.514      36.537339      36.537339      36.537339      1.2273555     -1435.0587      1191.9901      1006.5348    
     19000   19000          306.04659     -1223.0543      14287.754      15157.694      3508.2739      11649.42       1587.0162      3798.6127     -4149.7656      155.55457     -2579.0542      44832.71      -31995.653     -387.77312      48771.673      36.536131      36.536131      36.536131      1.2274773     -764.70222     -2173.9882     -730.47252    
     19100   19100          298.98821     -360.43868      14887.578      15144.215      3427.3621      11716.853      1599.4231      3725.7146     -4137.0775      142.31621     -2472.2802      44849.558     -31990.802     -387.37664      48821.59       36.548591      36.548591      36.548591      1.2262223     -781.89328     -334.16781      34.74504     
     19200   19200          298.79863      1320.5847      16027.422      15084.096      3425.1891      11658.907      1466.9724      3758.2305     -4054.3907      152.52666     -2535.0522      44867.027     -31996.407     -386.12291      48980.112      36.588106      36.588106      36.588106      1.2222537      168.20646      2404.7962      1388.7513    
     19300   19300          299.78246     -902.12307      14377.849      15022.835      3436.4668      11586.369      1565.5895      3662.9309     -4157.7356      150.55819     -2473.2818      44835.655     -31997.348     -385.7773       49023.992      36.599028      36.599028      36.599028      1.2211597     -1817.1419      807.55498     -1696.7823    
     19400   19400          298.90507     -549.13188      14596.682      14988.233      3426.4091      11561.824      1406.295       3780.3163     -4102.1064      151.91088     -2503.0141      44829.738     -32001.316     -386.82085      48891.738      36.566087      36.566087      36.566087      1.224463      -895.59461     -1388.7868      636.98573    
     19500   19500          291.35163      1204.6672      15787.769      14930.972      3339.8226      11591.15       1514.3852      3690.2407     -4117.5805      141.97267     -2502.2091      44867.587     -32003.246     -387.8025       48767.978      36.535208      36.535208      36.535208      1.2275703      1539.0504      1401.6404      673.31079    
     19600   19600          292.63856     -1323.3269      14048.167      14990.042      3354.5749      11635.467      1501.1831      3856.5209     -4097.0061      149.16136     -2590.948       44821.76      -32005.205     -387.52109      48803.391      36.544049      36.544049      36.544049      1.2266796     -1868.997      -2307.9228      206.93909    
     19700   19700          296.68809      482.4251       15440.513      15096.854      3400.9955      11695.859      1449.8227      3785.1713     -4072.1677      147.02446     -2481.3089      44866.956     -31999.64      -387.18929      48845.213      36.554485      36.554485      36.554485      1.2256293     -87.350526      733.17709      801.44874    
     19800   19800          299.09179      445.06986      15457.246      15139.279      3428.5496      11710.73       1572.5896      3716.6296     -4110.9829      156.06431     -2482.5922      44857.744     -31998.723     -386.0714       48986.647      36.589733      36.589733      36.589733      1.2220906      573.57502     -466.30117      1227.9357    
     19900   19900          302.2821      -270.07299      14918.16       15111.145      3465.1207      11646.024      1477.5564      3697.8149     -4055.4875      143.22753     -2491.0245      44869.318     -31995.381     -385.9926       48996.648      36.592223      36.592223      36.592223      1.2218412     -842.29636     -246.64681      278.72422    
     20000   20000          293.64243      828.51134      15617.38       15025.522      3366.0824      11659.439      1527.477       3684.1148     -4158.0646      161.24371     -2429.2671      44866.71      -31992.775     -386.10223      48982.735      36.588759      36.588759      36.588759      1.2221882      1880.4444     -872.60293      1477.6926    
     20100   20100          296.01988     -180.36003      14886.141      15014.966      3393.3356      11621.631      1483.9876      3709.7833     -4106.8455      142.4392      -2480.6062      44868.352     -31995.48      -386.15398      48976.171      36.587124      36.587124      36.587124      1.222352       1660.4014     -1773.6804     -427.80109    
     20200   20200          301.60828      1725.8621      16366.889      15136.827      3457.3966      11679.431      1500.6128      3699.389      -4117.4864      129.59668     -2437.1779      44896.267     -31991.771     -386.99057      48870.295      36.560741      36.560741      36.560741      1.2250002      2818.1124      1550.7619      808.71213    
     20300   20300          306.42041     -1423.3346      14183.074      15197.956      3512.559       11685.397      1482.7453      3773.8228     -4096.4166      151.18548     -2494.9516      44857.937     -31988.926     -386.82339      48891.416      36.566007      36.566007      36.566007      1.224471      -3367.7254     -559.6597      -342.61867    
     20400   20400          303.64253      786.80989      15705.579      15143.086      3480.7156      11662.371      1541.2701      3740.8769     -4166.2769      138.92252     -2447.1293      44852.793     -31998.086     -385.81082      49019.733      36.597969      36.597969      36.597969      1.2212658      1412.1777      527.67944      420.57254    
     20500   20500          298.73491     -999.92775      14343.713      15062.54       3424.4586      11638.081      1483.0466      3822.7182     -4129.4644      138.27749     -2519.6339      44835.76      -31992.623     -383.67714      49292.339      36.665685      36.665685      36.665685      1.2145117     -1734.2317     -146.62069     -1118.9309    
     20600   20600          299.94717      187.76363      15200.743      15065.369      3438.355       11627.014      1523.4563      3723.2445     -4157.789       148.6511      -2494.0676      44875.638     -31992.119     -382.55723      49436.639      36.701429      36.701429      36.701429      1.2109667      70.104986     -594.40583      1087.5917    
     20700   20700          297.37738     -1296.406       14193.613      15128.706      3408.897       11719.81       1526.271       3801.9894     -4139.9304      157.55393     -2478.0156      44845.617     -31993.676     -382.39057      49458.184      36.70676       36.70676       36.70676       1.2104391     -1820.5193     -854.66539     -1214.0331    
     20800   20800          302.62953      214.7685       15354.291      15199.721      3469.1034      11730.618      1497.4942      3774.8447     -4155.5584      154.15927     -2376.4038      44830.721     -31994.639     -383.23624      49349.047      36.679741      36.679741      36.679741      1.2131161      1000.9542     -2298.4799      1941.8312    
     20900   20900          301.90245     -53.405955      15153.341      15191.759      3460.7687      11730.991      1564.304       3796.4022     -4127.3445      150.78422     -2494.3758      44834.626     -31993.405     -383.41873      49325.56       36.673921      36.673921      36.673921      1.2136937      110.33338      250.22265     -520.7739     
     21000   21000          298.69918     -618.2904       14630.952      15074.899      3424.049       11650.85       1527.3473      3734.8103     -4136.9075      140.85705     -2480.0134      44853.98      -31989.224     -384.13402      49233.711      36.651143      36.651143      36.651143      1.2159579      589.61686     -1215.3366     -1229.1515    
     21100   21100          295.15565     -19.9146        15017.891      15032.193      3383.4288      11648.765      1510.0036      3718.4937     -4119.4059      137.84626     -2466.209       44857.871     -31989.835     -384.03947      49245.833      36.654151      36.654151      36.654151      1.2156586      880.96966     -247.60426     -693.1092     
     21200   21200          304.69944     -882.23217      14448.068      15081.208      3492.8312      11588.377      1475.3102      3742.4767     -4124.3577      146.14279     -2483.406       44833.703     -32001.492     -384.32992      49208.617      36.644915      36.644915      36.644915      1.216578      -829.34341     -1422.1244     -395.22873    
[...]
    495200   495200         302.76879      6.4332706      15130.891      15126.295      3470.6998      11655.595      1560.3775      3730.4551     -4133.0214      144.20002     -2484.9985      44825.131     -31986.549     -386.09852      48983.206      36.588876      36.588876      36.588876      1.2221765     -852.75272      844.84179      27.210734    
    495300   495300         298.94311      516.6963       15494.558      15125.37       3426.8452      11698.525      1490.0193      3821.4498     -4133.7537      162.4492      -2519.6679      44866.41      -31988.381     -386.01938      48993.248      36.591376      36.591376      36.591376      1.221926      -27.926128      248.17279      1329.8422    
    495400   495400         297.12303     -973.54106      14360.451      15055.95       3405.9812      11649.969      1488.9431      3775.6333     -4109.1044      129.99059     -2502.0261      44853.455     -31986.923     -386.08153      48985.362      36.589413      36.589413      36.589413      1.2221227     -223.76821     -1748.1785     -948.67645    
    495500   495500         296.55681     -787.68705      14442.826      15006.128      3399.4906      11606.638      1531.5258      3705.736      -4102.8241      148.30206     -2507.9761      44820.375     -31988.501     -385.68527      49035.69       36.601939      36.601939      36.601939      1.2208683     -594.06973     -1681.8346     -87.156817    
    495600   495600         296.32133      1184.5998      15864.246      15017.549      3396.7913      11620.757      1451.0643      3727.0444     -4081.4329      163.56546     -2446.0909      44803.941     -31997.334     -385.89104      49009.543      36.595432      36.595432      36.595432      1.2215197      288.07928      289.04727      2976.673     
    495700   495700         304.2736      -1198.054       14282.75       15139.207      3487.9497      11651.258      1514.2202      3754.7248     -4102.5551      132.26409     -2492.0718      44838.169     -31993.494     -385.82654      49017.736      36.597472      36.597472      36.597472      1.2213155     -479.65939     -1666.9705     -1447.532     
    495800   495800         300.5851      -259.38937      14984.49       15170.14       3445.6677      11724.472      1523.2023      3780.5328     -4081.3804      143.0897      -2491.2714      44845.374     -31995.074     -385.36988      49075.822      36.611922      36.611922      36.611922      1.21987       -641.60995     -673.47804      536.91989    
    495900   495900         305.44902      366.10962      15388.398      15126.237      3501.4238      11624.813      1498.3599      3754.8406     -4109.7078      147.5988      -2501.2021      44829.895     -31994.972     -385.17985      49100.033      36.617942      36.617942      36.617942      1.2192685      1036.4909      202.11779     -140.27983    
    496000   496000         299.94459      60.29465       15107.534      15064.408      3438.3254      11626.082      1531.1806      3623.5377     -4099.2027      136.43073     -2425.9149      44857.687     -31997.636     -385.61898      49044.12       36.604037      36.604037      36.604037      1.2206585     -1037.1368      1215.7965      2.2242577    
    496100   496100         296.32637     -278.24475      14827.369      15026.21       3396.849       11629.361      1463.7169      3825.5953     -4124.0072      151.42306     -2535.0096      44841.425     -31993.783     -385.96032      49000.746      36.593243      36.593243      36.593243      1.221739      -1246.2823     -297.59498      709.14303    
    496200   496200         291.93312      92.633194      15047.607      14981.51       3346.4883      11635.022      1515.0656      3720.6948     -4131.8276      161.24448     -2468.1972      44833.429     -31995.387     -386.55239      48925.693      36.57455       36.57455       36.57455       1.2236132      244.70798     -151.96593      185.15754    
    496300   496300         297.62707      276.49416      15196.349      14999.189      3411.7592      11587.43       1554.5382      3735.8446     -4123.6068      148.94085     -2527.7984      44793.63      -31994.119     -386.80132      48894.206      36.566703      36.566703      36.566703      1.2244011      1698.6555     -900.04653      30.873456    
    496400   496400         298.12037     -52.108336      15060.419      15097.524      3417.414       11680.11       1494.6865      3723.3567     -4087.8353      163.62163     -2480.3474      44859.465     -31992.836     -387.3397       48826.246      36.549753      36.549753      36.549753      1.2261054     -495.1626       1082.7403     -743.90271    
    496500   496500         303.29767     -606.04152      14715.695      15147.216      3476.7624      11670.454      1544.0308      3717.7686     -4106.4481      156.94564     -2477.8842      44827.254     -31991.213     -387.36577      48822.959      36.548933      36.548933      36.548933      1.2261879     -1179.7772      126.85519     -765.20253    
    496600   496600         303.53901      836.47811      15750.702      15154.486      3479.5289      11674.957      1525.7241      3685.6958     -4078.842       157.21662     -2473.0563      44848.034     -31989.815     -386.96572      48873.434      36.561523      36.561523      36.561523      1.2249216      1447.9472      583.08001      478.40714    
    496700   496700         300.59024      480.79242      15427.497      15084.14       3445.7266      11638.413      1456.0841      3753.6496     -4086.2609      148.11259     -2499.279       44856.865     -31990.758     -386.21768      48968.093      36.585113      36.585113      36.585113      1.2225537     -349.35366      1436.569       355.16194    
    496800   496800         294.97698     -1384.4931      13986.157      14978.172      3381.3807      11596.792      1534.3295      3694.1695     -4140.9154      136.26158     -2495.1452      44851.532     -31983.44      -384.94055      49130.556      36.625528      36.625528      36.625528      1.218511      -2745.7053     -1387.2692     -20.504901    
    496900   496900         296.59027      312.15828      15222.51       14998.353      3399.8741      11598.479      1475.0524      3716.8292     -4133.9042      137.8305      -2475.7124      44865.347     -31986.964     -384.1002       49238.046      36.652219      36.652219      36.652219      1.2158509      1262.5931      888.27607     -1214.3943    
    497000   497000         299.19164     -410.34695      14785.265      15080.467      3429.6942      11650.773      1466.7619      3784.1036     -4098.9278      153.34906     -2516.8252      44853.475     -31991.164     -383.40054      49327.9        36.674501      36.674501      36.674501      1.2136361      123.65218     -859.3373      -495.35572    
    497100   497100         306.75825     -552.00613      14726.329      15122.811      3516.4318      11606.379      1542.1308      3666.3037     -4119.1595      152.39095     -2502.1513      44864.279     -31997.414     -384.00965      49249.657      36.6551        36.6551        36.6551        1.2155643     -95.296791     -886.8406      -673.88098    
    497200   497200         297.38849     -105.94723      15031.689      15107.559      3409.0242      11698.534      1476.5663      3738.7964     -4091.1814      163.5282      -2459.5905      44861.064     -31990.648     -385.16074      49102.469      36.618547      36.618547      36.618547      1.219208       762.43077     -1141.3486      61.076137    
    497300   497300         301.09373      75.948121      15134.994      15080.719      3451.4982      11629.221      1534.8477      3707.5081     -4143.8632      141.06849     -2448.7705      44832.004     -31993.573     -385.95807      49001.031      36.593314      36.593314      36.593314      1.2217319      511.05267     -548.32377      265.11546    
    497400   497400         295.61818     -955.06862      14308.255      14990.374      3388.7308      11601.643      1506.809       3714.1629     -4126.979       146.29769     -2496.0609      44846.475     -31989.062     -386.18541      48972.186      36.586132      36.586132      36.586132      1.2224515     -814.41543     -1602.1196     -448.67087    
    497500   497500         289.82829      965.54375      15615.42       14926.951      3322.3602      11604.591      1534.308       3739.1009     -4150.8979      162.80732     -2521.0224      44828.152     -31987.857     -386.81994      48891.853      36.566116      36.566116      36.566116      1.2244601      929.5504       1450.708       516.37287    
    497600   497600         301.19564     -1355.9354      14044.53       15007.791      3452.6664      11555.124      1517.4317      3629.6699     -4103.8283      151.55783     -2527.7682      44879.389     -31991.327     -388.25437      48711.218      36.521028      36.521028      36.521028      1.2290007     -1431.5948     -632.33347     -2003.8781    
    497700   497700         298.9009      -857.44416      14457.706      15065.941      3426.3614      11639.579      1474.9724      3769.9998     -4075.5383      157.30568     -2545.2742      44853.813     -31995.699     -388.82688      48639.496      36.503095      36.503095      36.503095      1.230813      -863.68707     -1190.5794     -518.06605    
    497800   497800         298.86379      1972.2605      16474.557      15073.44       3425.936       11647.504      1482.2337      3646.1314     -4081.416       157.69269     -2441.2157      44877.545     -31993.467     -388.24967      48711.808      36.521176      36.521176      36.521176      1.2289858      2325.3177      1055.7519      2535.712     
    497900   497900         301.97091     -778.0362       14561.329      15117.014      3461.5535      11655.461      1508.5285      3732.3446     -4059.857       140.36157     -2526.1203      44850.399     -31990.196     -386.18221      48972.591      36.586233      36.586233      36.586233      1.2224414     -790.28921     -1199.1372     -344.6822     
    498000   498000         301.61862      348.84125      15450.623      15200.301      3457.5151      11742.786      1530.9865      3717.0537     -4044.28        147.69145     -2462.8706      44845.7       -31991.495     -384.37109      49203.345      36.643606      36.643606      36.643606      1.2167084     -560.94054     -341.98299      1949.4473    
    498100   498100         307.29518     -834.21927      14622.354      15221.981      3522.5866      11699.395      1555.21        3738.2802     -4083.5511      143.845       -2550.9505      44890.887     -31994.326     -383.72475      49286.223      36.664169      36.664169      36.664169      1.2146624      125.90374     -757.59404     -1870.9675    
    498200   498200         296.38714     -147.35888      14967.863      15073.544      3397.5456      11675.998      1550.6748      3714.8444     -4133.9938      151.61803     -2504.5535      44889.504     -31992.096     -384.5929       49174.968      36.636561      36.636561      36.636561      1.2174105      1178.6055     -1343.5494     -277.13276    
    498300   498300         298.7031      -401.2811       14754.484      15041.016      3424.094       11616.922      1452.6236      3705.9591     -4098.0638      169.17268     -2536.4148      44914.403     -31990.758     -386.27493      48960.836      36.583305      36.583305      36.583305      1.2227349     -2727.1322      744.07539      779.21352    
    498400   498400         306.60907      375.95642      15351.695      15084.295      3514.7217      11569.574      1470.0507      3676.9516     -4111.4108      144.12537     -2519.1716      44903.526     -31994.497     -387.79065      48769.467      36.53558       36.53558       36.53558       1.2275328      475.71565      476.25074      175.90288    
    498500   498500         302.69287     -579.9955       14722.248      15134.817      3469.8295      11664.988      1532.0797      3724.1763     -4084.5396      131.83349     -2517.6906      44867.93      -31988.802     -387.74728      48774.923      36.536942      36.536942      36.536942      1.2273955     -450.1563      -1453.1557      163.3255     
    498600   498600         304.73768      1839.7131      16474.387      15164.823      3493.2696      11671.553      1518.9952      3701.5481     -4136.5908      156.91949     -2436.6574      44856.303     -31988.965     -387.4756       48809.12       36.545479      36.545479      36.545479      1.2265356      1609.3472      2276.8487      1632.9434    
    498700   498700         296.33886     -36.831455      15082.468      15108.821      3396.9922      11711.829      1512.4163      3785.1505     -4134.3822      168.28593     -2445.2717      44819.544     -31993.914     -385.48809      49060.773      36.608179      36.608179      36.608179      1.2202442      911.54304     -2592.1016      1570.0642    
    498800   498800         300.17662     -345.93582      14767.311      15016.285      3440.9852      11575.3        1496.5608      3659.0354     -4105.0054      139.25445     -2477.8778      44858.694     -31995.361     -383.23201      49349.592      36.679876      36.679876      36.679876      1.2131027      442.82728     -764.2035      -716.43125    
    498900   498900         295.82139     -552.6391       14624.395      15023.607      3391.0603      11632.547      1492.0707      3709.0087     -4102.9713      148.45643     -2510.0133      44883.348     -31987.353     -381.82014      49532.074      36.725031      36.725031      36.725031      1.2086335     -831.81897     -605.43554     -220.6628     
    499000   499000         299.32566     -2157.6204      13560.455      15115.533      3431.2305      11684.302      1512.4714      3775.4581     -4107.2043      146.57878     -2509.6031      44859.446     -31992.845     -382.6874       49419.823      36.697268      36.697268      36.697268      1.2113787     -4275.4929     -871.15341     -1326.215     
    499100   499100         299.58784     -393.8337       14862.686      15144.988      3434.2359      11710.752      1539.3383      3730.4883     -4090.1241      148.35889     -2505.4943      44881.184     -31992.999     -384.78707      49150.154      36.630397      36.630397      36.630397      1.2180251     -468.65242      15.33895      -728.18764    
    499200   499200         308.16703     -903.20949      14479.607      15123.965      3532.5809      11591.384      1498.242       3800.8283     -4106.256       138.89905     -2556.9662      44810.505     -31993.868     -386.61837      48917.343      36.572469      36.572469      36.572469      1.223822      -1245.1349     -1607.4742      142.98065    
    499300   499300         297.43372      367.58593      15333.748      15072.867      3409.5427      11663.325      1569.9583      3625.5225     -4054.4383      157.61006     -2497.6937      44853.005     -31990.639     -388.63125      48663.98       36.509219      36.509219      36.509219      1.2301937     -52.715183      840.11407      315.35891    
    499400   499400         295.43737      779.44017      15590.054      15037.778      3386.6582      11651.12       1488.1196      3716.0977     -4084.8091      149.93129     -2492.6427      44868.02      -31993.597     -389.26682      48584.525      36.489338      36.489338      36.489338      1.2322056      358.90844      577.34436      1402.0677    
    499500   499500         292.86321     -108.4808       14945.625      15022.573      3357.1501      11665.423      1552.5363      3738.4738     -4136.6521      158.51725     -2498.4148      44849.65      -31998.688     -388.84721      48636.954      36.502459      36.502459      36.502459      1.2308773      1708.4216     -532.62667     -1501.2373    
    499600   499600         295.44053     -802.21617      14509.406      15079.248      3386.6944      11692.554      1555.928       3744.7822     -4057.0572      157.04319     -2530.5344      44820.504     -31998.112     -388.29143      48706.57       36.519867      36.519867      36.519867      1.229118      -779.9438      -460.16358     -1166.5411    
    499700   499700         302.68684      847.97678      15762.832      15159.833      3469.7603      11690.073      1515.27        3776.2147     -4081.9617      136.90057     -2492.7913      44834.28      -31997.839     -387.87225      48759.207      36.533018      36.533018      36.533018      1.2277911      920.95236      806.79382      816.18416    
    499800   499800         298.95912     -541.01137      14768.557      15154.569      3427.0287      11727.54       1514.2323      3760.0028     -4060.231       152.78607     -2480.7501      44840.24      -31998.74      -386.56839      48923.668      36.574046      36.574046      36.574046      1.2236638     -1323.3139     -936.39103      636.67078    
    499900   499900         296.97021     -745.04103      14526.03       15060.188      3404.2294      11655.958      1550.0783      3735.0159     -4108.4058      136.37317     -2527.4561      44859.402     -31989.049     -384.70861      49160.177      36.632887      36.632887      36.632887      1.2177768     -1681.6946     -585.43284      32.004395    
    500000   500000         299.08181      115.89479      15138.497      15055.186      3428.4352      11626.751      1496.8565      3730.106      -4075.2962      143.6509      -2542.8017      44873.266     -31999.031     -383.68973      49290.721      36.665284      36.665284      36.665284      1.2145516      2461.2032     -1066.6449     -1046.8739    
Loop time of 2035.28 on 1 procs for 500000 steps with 4520 atoms

Performance: 21.226 ns/day, 1.131 hours/ns, 245.666 timesteps/s, 1.110 Matom-step/s
100.0% CPU use with 1 MPI tasks x 1 OpenMP threads

MPI task timing breakdown:
Section |  min time  |  avg time  |  max time  |%varavg| %total
---------------------------------------------------------------
Pair    | 566.99     | 566.99     | 566.99     |   0.0 | 27.86
Bond    | 309.28     | 309.28     | 309.28     |   0.0 | 15.20
Kspace  | 631.84     | 631.84     | 631.84     |   0.0 | 31.04
Neigh   | 116.75     | 116.75     | 116.75     |   0.0 |  5.74
Comm    | 15.254     | 15.254     | 15.254     |   0.0 |  0.75
Output  | 5.2912     | 5.2912     | 5.2912     |   0.0 |  0.26
Modify  | 270.67     | 270.67     | 270.67     |   0.0 | 13.30
Other   |            | 119.2      |            |       |  5.86

Nlocal:           4520 ave        4520 max        4520 min
Histogram: 1 0 0 0 0 0 0 0 0 0
Nghost:          14907 ave       14907 max       14907 min
Histogram: 1 0 0 0 0 0 0 0 0 0
Neighs:              0 ave           0 max           0 min
Histogram: 1 0 0 0 0 0 0 0 0 0
FullNghs:  2.63787e+06 ave 2.63787e+06 max 2.63787e+06 min
Histogram: 1 0 0 0 0 0 0 0 0 0

Total # of neighbors = 2637872
Ave neighs/atom = 583.6
Ave special neighs/atom = 5.5353982
Neighbor list builds = 16890
Dangerous builds = 0

# --- Cleanup ---
unfix npt_fix
unfix shake_fix
undump dump_npt

# --- Write Output ---
write_dump all custom /home/arz2/PolyJarvis/data/PLA3/lammps/mechanical/bm_series/bm_P0/bm_P0_last.dump id type mol x y z xu yu zu vx vy vz modify sort id
write_data /home/arz2/PolyJarvis/data/PLA3/lammps/mechanical/bm_series/bm_P0/bm_P0_out.data
System init for write_data ...
PPPM Kokkos initialization ...
  using 12-bit tables for long-range coulomb
  G vector (1/distance) = 0.34285173
  grid = 45 45 45
  stencil order = 5
  estimated absolute RMS force accuracy = 0.00025253723
  estimated relative force accuracy = 7.6050837e-07
  using double precision cuFFT
  3d grid and FFT values/proc = 140608 91125
Generated 21 of 21 mixed pair_coeff terms from sixthpower/sixthpower mixing rule

print "STAGE COMPLETE: NPT T=300.0->300.0K P=0.0->0.0atm steps=500000"
STAGE COMPLETE: NPT T=300.0->300.0K P=0.0->0.0atm steps=500000
quit
