units real
atom_style full
boundary p p p

# --- Force Field Styles ---
pair_style lj/class2/coul/long 9.5 9.5
kspace_style pppm 1e-6
dielectric 1.000000
bond_style class2
angle_style class2
dihedral_style class2
improper_style class2
special_bonds lj/coul 0 0 1
pair_modify mix sixthpower tail yes
neighbor 2.0 bin
neigh_modify delay 0 every 1 check yes
neigh_modify one 4000
# KOKKOS: package loaded via -pk kokkos on the command line

read_data /home/arz2/PolyJarvis/data/PLA1/lammps/equil/npt_prod300/npt_prod300_out.data
Reading data file ...
  orthogonal box = (4.585882 4.585882 4.585882) to (41.047241 41.047241 41.047241)
  1 by 1 by 1 MPI processor grid
  reading atoms ...
  4520 atoms
  reading velocities ...
  4520 velocities
  scanning bonds ...
  4 = max bonds/atom
  scanning angles ...
  12 = max angles/atom
  scanning dihedrals ...
  21 = max dihedrals/atom
  scanning impropers ...
  8 = max impropers/atom
  orthogonal box = (4.585882 4.585882 4.585882) to (41.047241 41.047241 41.047241)
  1 by 1 by 1 MPI processor grid
  reading bonds ...
  4510 bonds
  reading angles ...
  8000 angles
  reading dihedrals ...
  9970 dihedrals
  reading impropers ...
  4500 impropers
Finding 1-2 1-3 1-4 neighbors ...
  special bond factors lj:    0        0        1       
  special bond factors coul:  0        0        1       
     4 = max # of 1-2 neighbors
     6 = max # of 1-3 neighbors
    10 = max # of special neighbors
  special bonds CPU = 0.003 seconds
  read_data CPU = 0.243 seconds


# --- Thermo Output ---
thermo_style custom step time temp press enthalpy etotal ke pe ebond eangle edihed eimp evdwl ecoul elong etail vol lx ly lz density pxx pyy pzz
thermo_modify flush yes
thermo 100

# --- Trajectory ---
dump dump_npt all custom 1000 /home/arz2/PolyJarvis/data/PLA1/lammps/mechanical/bm_series/bm_P-1000/bm_P-1000.dump id type mol x y z ix iy iz vx vy vz

# --- Restart Checkpointing ---
restart 10000 npt_1.rst npt_2.rst

# --- Initial Velocities (optional) ---
# Velocities read from data file

# --- SHAKE Constraints ---
fix shake_fix all shake 1e-4 1000 0 m 1.008
Finding SHAKE clusters ...
     500 = # of size 2 clusters
      10 = # of size 3 clusters
     500 = # of size 4 clusters
       0 = # of frozen angles
  find clusters CPU = 0.002 seconds

# --- NPT Thermostat + Barostat (Nose-Hoover) ---
# T_damp = 100.0 fs  (heat bath coupling)
# P_damp = 1000.0 fs  (pressure bath coupling, ~10x T_damp typical)
# Ramp: T=300.0->300.0K  P=-1000.0->-1000.0atm
timestep 1.0
fix npt_fix all npt temp 300.0 300.0 100.0 iso -1000.0 -1000.0 1000.0

run 500000
PPPM Kokkos initialization ...
  using 12-bit tables for long-range coulomb
  G vector (1/distance) = 0.33469742
  grid = 40 40 40
  stencil order = 5
  estimated absolute RMS force accuracy = 0.00041952969
  estimated relative force accuracy = 1.2634012e-06
  using double precision cuFFT
  3d grid and FFT values/proc = 103823 64000
Generated 21 of 21 mixed pair_coeff terms from sixthpower/sixthpower mixing rule
Neighbor list info ...
  update: every = 1 steps, delay = 0 steps, check = yes
  max neighbors/atom: 4000, page size: 100000
  master list distance cutoff = 11.5
  ghost atom cutoff = 11.5
  binsize = 11.5, bins = 4 4 4
  1 neighbor lists, perpetual/occasional/extra = 1 0 0
  (1) pair lj/class2/coul/long/kk, perpetual
      attributes: full, newton off, kokkos_device
      pair build: full/bin/kk/device
      stencil: full/bin/3d
      bin: kk/device
Per MPI rank memory allocation (min/avg/max) = 34.72 | 34.72 | 34.72 Mbytes
   Step          Time           Temp          Press         Enthalpy        TotEng         KinEng         PotEng         E_bond        E_angle        E_dihed        E_impro         E_vdwl         E_coul         E_long         E_tail         Volume           Lx             Ly             Lz          Density          Pxx            Pyy            Pzz      
         0   0              346.62322     -482.15871      15386.398      15727.249      3973.412       11753.837      1496.6443      3713.6708     -3993.9481      139.98551     -2478.0238      44134.187     -31258.679     -390.16362      48472.852      36.46136       36.46136       36.46136       1.2350444     -1791.1431      437.32152     -92.654577    
       100   100            301.7994      -747.44787      14602.026      15133.237      3459.5875      11673.65       1527.983       3752.5946     -4037.4766      153.98244     -2570.583       44101.94      -31254.791     -388.09196      48731.603      36.526122      36.526122      36.526122      1.2284866     -2105.4975      308.33512     -445.18128    
       200   200            293.50948     -1711.6535      13820.773      15046.413      3364.5584      11681.854      1496.862       3722.3428     -4003.0743      134.49998     -2523.5098      44111.464     -31256.73      -385.18931      49098.828      36.617642      36.617642      36.617642      1.2192984     -1365.3203     -2259.4518     -1510.1883    
       300   300            294.48265     -757.8568       14446.404      14993.296      3375.714       11617.582      1522.5982      3752.1167     -4081.0629      119.68507     -2509.0116      44072.452     -31259.195     -382.21388      49481.048      36.712416      36.712416      36.712416      1.2098798      354.02965     -198.50641     -2429.0936    
       400   400            293.10436     -2387.0176      13327.045      15059.623      3359.9145      11699.709      1484.6813      3761.6786     -4022.8485      157.35119     -2508.6123      44089.798     -31262.34      -380.00035      49769.279      36.783562      36.783562      36.783562      1.202873      -1516.8762     -4340.9722     -1303.2044    
       500   500            298.34095     -1129.0344      14298.804      15119.788      3419.9425      11699.846      1529.9372      3720.4114     -4037.7398      146.23916     -2467.7108      44070.065     -31261.357     -379.3093       49859.952      36.805887      36.805887      36.805887      1.2006855     -934.62548     -2202.034      -250.44374    
       600   600            298.82868     -539.0713       14776.435      15167.871      3425.5335      11742.337      1526.9385      3758.8058     -3998.9914      132.24247     -2510.4697      44095.718     -31261.907     -379.84522      49789.605      36.788569      36.788569      36.788569      1.2023819     -1212.88       -110.4446      -293.88933    
       700   700            299.8273      -1439.506       14170.775      15213.738      3436.9809      11776.757      1492.6872      3754.7482     -4015.5422      143.30785     -2443.5452      44108.127     -31263.026     -380.68501      49679.769      36.761497      36.761497      36.761497      1.2050403     -742.03726     -2361.667      -1214.8137    
       800   800            304.16233     -833.37786      14581          15183.946      3486.6742      11697.272      1503.1837      3761.3912     -4032.0386      139.5624      -2492.5891      44085.02      -31267.258     -381.22783      49609.032      36.744041      36.744041      36.744041      1.2067585     -1092.4403     -442.89792     -964.79534    
       900   900            292.18832     -1125.8327      14261.26       15074.39       3349.4137      11724.977      1524.2616      3754.0508     -4032.7661      138.57527     -2473.7886      44073.38      -31258.736     -381.88708      49523.392      36.722885      36.722885      36.722885      1.2088454     -59.516107     -1098.1476     -2219.8344    
      1000   1000           296.37274     -738.19054      14525.136      15057.778      3397.3805      11660.398      1519.2046      3720.5196     -4062.7491      129.08566     -2496.9132      44109.253     -31258.002     -382.25535      49475.681      36.711088      36.711088      36.711088      1.2100111     -1991.7473      523.26209     -746.08639    
      1100   1100           299.04159     -1332.6281      14132.761      15091.405      3427.9741      11663.431      1512.1563      3738.4174     -4054.902       134.82995     -2514.3558      44114.506     -31267.221     -383.41837      49325.606      36.673932      36.673932      36.673932      1.2136926     -2062.5797     -1997.8816      62.577046    
      1200   1200           304.21602     -225.54316      14975.206      15136.922      3487.2896      11649.633      1467.4163      3728.3058     -4037.4541      127.69776     -2541.7372      44162.53      -31257.126     -384.67679      49164.243      36.633897      36.633897      36.633897      1.2176761      103.37716      192.95054     -972.95717    
      1300   1300           303.61452     -576.84633      14723.898      15137.193      3480.3945      11656.798      1567.361       3714.965      -4051.3981      132.26297     -2545.5437      44095.525     -31256.373     -384.96509      49127.424      36.62475       36.62475       36.62475       1.2185887     -506.07046     -680.89636     -543.57215    
      1400   1400           298.64578      276.80116      15315.974      15117.592      3423.4369      11694.155      1493.4239      3720.3671     -3986.2556      136.11814     -2520.1303      44106.947     -31256.315     -384.84532      49142.714      36.628549      36.628549      36.628549      1.2182095      908.42915      429.39594     -507.4216     
      1500   1500           299.94184     -523.39872      14749.912      15126.13       3438.2938      11687.836      1503.8851      3750.5848     -4006.524       136.99684     -2511.9037      44081.723     -31266.925     -383.71987      49286.85       36.664324      36.664324      36.664324      1.214647      -21.680432     -287.36452     -1261.1512    
      1600   1600           303.13288     -1591.6109      13990.353      15138.356      3474.8733      11663.483      1541.8444      3698.9773     -4038.0393      146.93928     -2511.4286      44083.908     -31258.719     -382.39762      49457.274      36.706535      36.706535      36.706535      1.2104614     -885.48325     -2234.0388     -1655.3107    
      1700   1700           300.65111     -1359.0598      14165.755      15148.657      3446.4243      11702.232      1431.2031      3732.5887     -3999.1604      149.99245     -2469.1701      44114.876     -31258.098     -381.37272      49590.184      36.739387      36.739387      36.739387      1.2072172     -805.3444      -1336.5489     -1935.2862    
      1800   1800           298.23537     -750.79183      14608.396      15153.975      3418.7323      11735.243      1604.1626      3750.7082     -4103.6087      142.04568     -2480.252       44082.746     -31260.559     -379.56259      49826.68       36.797698      36.797698      36.797698      1.2014873     -397.90612     -188.3271      -1666.1423    
      1900   1900           301.65758     -755.56497      14607.57       15157.677      3457.9618      11699.715      1514.9999      3766.3586     -4104.6525      133.10165     -2455.3562      44109.125     -31263.862     -378.83156      49922.83       36.821352      36.821352      36.821352      1.1991732      324.98119     -806.62979     -1785.0463    
      2000   2000           297.25104     -446.27491      14813.222      15138.426      3407.4487      11730.978      1527.4842      3744.6821     -4081.0019      141.12388     -2439.5883      44099.643     -31261.365     -378.50164      49966.345      36.832047      36.832047      36.832047      1.1981289     -408.60981     -1247.7965      317.58155    
      2100   2100           292.94768     -1943.4965      13621.712      15040.521      3358.1183      11682.403      1473.5777      3727.0752     -4027.5104      152.83393     -2461.7752      44077.572     -31259.37      -377.81667      50056.933      36.854292      36.854292      36.854292      1.1959607     -698.75274     -1838.2392     -3293.4976    
      2200   2200           293.01907     -1067.392       14240.541      15019.534      3358.9368      11660.597      1497.7945      3771.0194     -4091.9624      154.35292     -2476.6657      44069.885     -31263.827     -377.93043      50041.864      36.850594      36.850594      36.850594      1.1963208     -1078.5956     -1056.0686     -1067.5119    
      2300   2300           297.87772     -1420.5661      14093.839      15127.523      3414.6324      11712.89       1538.2459      3688.2688     -4076.4257      154.40104     -2439.9097      44103.723     -31255.413     -379.04866      49894.237      36.814321      36.814321      36.814321      1.1998605     -1481.4748     -1236.4649     -1543.7585    
      2400   2400           307.11892     -1814.6948      13852.89       15169.314      3520.5661      11648.748      1475.2204      3739.2932     -4035.8627      147.25092     -2519.1071      44096.215     -31254.262     -380.21486      49741.201      36.776643      36.776643      36.776643      1.203552      -1555.9667     -1309.0925     -2579.0253    
      2500   2500           299.78585     -1309.4375      14206.966      15153.663      3436.5058      11717.157      1537.7992      3687.3573     -4026.3176      154.37098     -2458.4567      44077.197     -31254.793     -381.50056      49573.567      36.735283      36.735283      36.735283      1.2076218     -1336.2119     -66.466073     -2525.6345    
      2600   2600           299.62276     -329.12095      14875.879      15113.181      3434.6362      11678.544      1446.3127      3780.5906     -4046.0498      156.47632     -2498.8408      44096.947     -31256.892     -382.53892      49439.005      36.702015      36.702015      36.702015      1.2109087     -1349.9046     -802.67329      1165.2151    
      2700   2700           297.85577     -808.05032      14484.506      15067.082      3414.3808      11652.701      1567.8353      3625.5492     -4075.4387      144.50065     -2412.9606      44061.555     -31258.34      -382.56626      49435.471      36.70114       36.70114       36.70114       1.2109953     -362.24195     -2702.7605      640.85153    
      2800   2800           301.34675     -1186.2448      14227.758      15084.041      3454.3986      11629.642      1485.0523      3681.4798     -4030.8102      151.31588     -2443.788       44041.93      -31255.538     -382.10105      49495.66       36.716029      36.716029      36.716029      1.2095227     -1302.0415     -876.62836     -1380.0646    
      2900   2900           302.67799     -395.49905      14908.81       15194.676      3469.6589      11725.017      1541.0841      3707.0848     -4056.6918      173.43221     -2463.9971      44082.033     -31257.928     -381.59588      49561.183      36.732224      36.732224      36.732224      1.2079236     -303.01252     -233.46303     -650.02159    
      3000   3000           305.99989     -969.66991      14517.637      15219.859      3507.7385      11712.12       1486.7823      3697.8529     -3997.5847      150.54941     -2460.6697      44100.284     -31265.094     -380.86475      49656.324      36.755713      36.755713      36.755713      1.2056092     -397.07284     -843.78839     -1668.1485    
      3100   3100           301.89229     -1659.6765      13962.716      15164.849      3460.6522      11704.196      1531.6339      3766.7974     -4040.0914      141.11907     -2508.6943      44076.621     -31263.19      -380.79587      49665.306      36.757929      36.757929      36.757929      1.2053912      224.25477     -3605.3695     -1597.9147    
      3200   3200           302.78792     -729.67835      14582.002      15108.574      3470.919       11637.655      1456.3976      3701.1337     -4044.078       146.18414     -2455.2391      44095.019     -31261.762     -382.20367      49482.371      36.712743      36.712743      36.712743      1.2098475     -1262.2216      432.75527     -1359.5687    
      3300   3300           296.73672     -1839.1016      13694.672      15018.03       3401.5529      11616.477      1536.7774      3722.9765     -4058.2852      135.47357     -2534.1018      44079.386     -31265.75      -383.30971      49339.589      36.677397      36.677397      36.677397      1.2133486     -2492.9602     -3249.155       224.81029    
      3400   3400           295.65589      157.81093      15064.771      14951.46       3389.1631      11562.297      1409.029       3721.9461     -4019.1837      125.57545     -2475.1045      44070.328     -31270.294     -384.13542      49233.531      36.651099      36.651099      36.651099      1.2159624     -38.23528      -1400.4871      1912.1552    
      3500   3500           294.68431     -1463.0404      13990.202      15041.728      3378.0257      11663.702      1483.4159      3695.293      -4017.0257      156.76655     -2478.5982      44093.666     -31269.815     -383.75815      49281.933      36.663105      36.663105      36.663105      1.2147681     -1582.926      -2177.1343     -629.06102    
      3600   3600           305.80245     -173.87168      14997.441      15122.827      3505.4752      11617.352      1449.555       3705.7442     -3991.3759      136.46125     -2512.0315      44097.102     -31268.103     -382.47475      49447.3        36.704067      36.704067      36.704067      1.2107056     -327.45566      749.22608     -943.38546    
      3700   3700           299.79925     -2574.7894      13289.4        15152.134      3436.6593      11715.475      1551.6776      3746.836      -4040.5198      137.10674     -2503.723       44086.969     -31262.872     -381.25185      49605.906      36.743269      36.743269      36.743269      1.2068346     -4024.0431     -1877.4616     -1822.8634    
      3800   3800           299.32142     -1678.6982      13958.332      15172.805      3431.1818      11741.623      1491.743       3773.615      -3977.2998      142.90851     -2535.1458      44112.754     -31266.951     -381.24674      49606.571      36.743433      36.743433      36.743433      1.2068184     -1536.5101     -2073.2447     -1426.3398    
      3900   3900           298.54704     -1349.1201      14232.712      15205.871      3422.305       11783.565      1508.1472      3827.2688     -4044.3569      163.83987     -2485.8598      44084.153     -31269.627     -382.374        49460.328      36.707291      36.707291      36.707291      1.2103867     -1498.8046     -497.11768     -2051.4379    
      4000   4000           299.10749     -34.563081      15164.538      15189.342      3428.7295      11760.612      1497.2105      3760.7517     -4049.8382      147.61607     -2451.2038      44116.125     -31260.049     -384.34179      49207.097      36.644538      36.644538      36.644538      1.2166156     -2012.3558      13.674887      1894.9917    
      4100   4100           299.04541     -1506.4592      14015.007      15095.616      3428.0179      11667.599      1439.9856      3713.9733     -4000.0441      129.31814     -2453.3137      44093.228     -31255.549     -384.51178      49185.342      36.639137      36.639137      36.639137      1.2171537     -1489.1505     -669.83307     -2360.394     
      4200   4200           296.43561     -1009.1594      14320.943      15046.741      3398.1012      11648.64       1528.4226      3734.1463     -4022.9955      154.59912     -2541.8226      44057.378     -31261.089     -383.49975      49315.139      36.671338      36.671338      36.671338      1.2139502     -32.497009     -1135.063      -1859.9183    
      4300   4300           298.1668       4.6508686      15075.528      15072.177      3417.9462      11654.231      1458.019       3709.928      -4042.7155      140.21715     -2457.9865      44104.749     -31257.98      -382.73512      49413.661      36.695742      36.695742      36.695742      1.2115298      1448.1758     -465.19597     -969.02725    
      4400   4400           300.13179     -1939.607       13791.31       15194.014      3440.4713      11753.543      1556.9448      3777.4633     -4085.5637      138.16838     -2466.2792      44089.936     -31257.126     -381.38954      49587.997      36.738847      36.738847      36.738847      1.2072704     -2040.0746     -1463.1128     -2315.6335    
      4500   4500           303.92055     -1237.6044      14343.549      15240.136      3483.9026      11756.234      1477.7491      3751.1222     -4020.9159      142.77957     -2428.8533      44092.45      -31258.098     -380.72425      49674.649      36.760234      36.760234      36.760234      1.2051645     -281.15481     -1878.1915     -1553.4669    
      4600   4600           299.43561     -18.724189      15194.699      15208.267      3432.4908      11775.776      1446.2739      3755.5005     -3974.9982      133.74939     -2444.1403      44119.542     -31260.152     -380.65136      49684.161      36.76258       36.76258       36.76258       1.2049337      267.90637      640.02379     -964.10272    
      4700   4700           299.67133     -271.45348      14962.087      15158.615      3435.1929      11723.422      1509.6759      3695.9286     -4043.2813      147.42719     -2452.6861      44122.907     -31256.549     -380.97255      49642.274      36.752246      36.752246      36.752246      1.2059505     -66.090327      366.42697     -1114.6971    
      4800   4800           302.70924     -806.20424      14491.828      15075.069      3470.0171      11605.051      1437.9321      3642.899      -4009.5572      155.46388     -2499.4829      44136.534     -31258.738     -381.25757      49605.162      36.743085      36.743085      36.743085      1.2068527     -498.06839     -1679.8766     -240.66772    
      4900   4900           292.43112     -1355.3215      14060.586      15041.45       3352.197       11689.253      1479.809       3711.7439     -4016.4957      149.26139     -2469.8384      44093.778     -31259.005     -381.11401      49623.847      36.747698      36.747698      36.747698      1.2063983     -734.50141     -895.02537     -2436.4378    
      5000   5000           304.36417     -1374.9721      14198.115      15191.526      3488.9879      11702.538      1500.6263      3710.4174     -4017.2613      141.20524     -2469.043       44101.016     -31264.422     -381.75618      49540.372      36.727082      36.727082      36.727082      1.208431      -2519.0809     -1596.2286     -9.6066852    
      5100   5100           302.62941      452.95367      15541.232      15214.149      3469.102       11745.047      1513.985       3743.7177     -4029.6195      160.35548     -2518.9872      44131.932     -31256.337     -381.95924      49514.036      36.720572      36.720572      36.720572      1.2090738     -827.81465      596.98683      1589.6888    
      5200   5200           303.90275     -1727.0197      13904.444      15153.272      3483.6985      11669.574      1454.0445      3745.8229     -3998.7496      146.64792     -2536.5943      44112.505     -31254.103     -381.43066      49582.652      36.737527      36.737527      36.737527      1.2074006      52.324348     -2150.8608     -3082.5227    
      5300   5300           299.81232     -2601.9654      13202.173      15083.225      3436.8091      11646.416      1523.7405      3692.9234     -4005.0705      132.66923     -2523.9171      44085.831     -31259.761     -381.52421      49570.493      36.734524      36.734524      36.734524      1.2076967     -3094.287      -2462.6068     -2249.0023    
      5400   5400           296.05881     -1175.1026      14231.994      15079.94       3393.7819      11686.158      1479.298       3688.9655     -3951.9088      149.4599      -2520.3459      44103.34      -31262.651     -382.23333      49478.531      36.711793      36.711793      36.711793      1.2099414     -680.98975     -2449.5285     -394.78956    
      5500   5500           306.17402     -151.62523      15076.991      15186.141      3509.7346      11676.406      1465.8294      3717.86       -3995.2782      150.11088     -2505.2842      44101.18      -31258.012     -383.15002      49360.152      36.682492      36.682492      36.682492      1.2128431      228.37895     -52.812157     -630.44247    
      5600   5600           303.50593     -1656.3486      14022.296      15211.161      3479.1497      11732.011      1524.6585      3730.9959     -4033.7896      160.06937     -2493.4258      44107.377     -31263.874     -384.27365      49215.822      36.646703      36.646703      36.646703      1.2163999     -1096.9384     -2228.8689     -1643.2385    
      5700   5700           306.48649     -265.97901      14982.733      15173.475      3513.3165      11660.158      1459.3756      3703.6276     -4006.5897      147.02683     -2487.4024      44113.945     -31269.824     -384.6116       49172.577      36.635967      36.635967      36.635967      1.2174697     -674.38062      1545.2303     -1668.7868    
      5800   5800           301.07864      129.6385       15224.514      15131.261      3451.3252      11679.936      1471.923       3743.473      -4030.7701      150.42696     -2536.2908      44146.403     -31265.229     -383.43773      49323.116      36.673315      36.673315      36.673315      1.2137539      151.39248     -1225.1814      1462.7044    
      5900   5900           298.66471     -1505.0105      14001.197      15091.317      3423.6538      11667.664      1504.1781      3724.0686     -3999.5219      157.79934     -2555.2986      44097.505     -31261.067     -380.79075      49665.973      36.758094      36.758094      36.758094      1.205375      -1535.4194     -1969.0169     -1010.5952    
      6000   6000           297.69158     -2302.3683      13394.456      15069.981      3412.4987      11657.482      1471.9107      3742.9301     -4035.785       142.45532     -2522.9649      44122.566     -31263.63      -379.0052       49899.957      36.815728      36.815728      36.815728      1.1997229     -2921.1081     -2726.6918     -1259.3049    
      6100   6100           294.40504     -982.04251      14388.06       15102.831      3374.8244      11728.006      1517.8994      3693.0566     -4012.832       140.28727     -2459.1659      44111.179     -31262.418     -378.95249      49906.899      36.817435      36.817435      36.817435      1.1995561      719.76992     -533.94189     -3131.9556    
      6200   6200           304.97717     -373.21624      14935.711      15206.729      3496.0148      11710.714      1507.8961      3686.9071     -4036.5333      150.42349     -2475.4941      44138.184     -31260.67      -379.82562      49792.174      36.789202      36.789202      36.789202      1.2023199     -1523.2927     -487.65351      891.29752    
      6300   6300           303.09018     -1366.2886      14241.403      15231.507      3474.3839      11757.123      1486.8289      3734.3775     -4009.9326      163.56767     -2501.2135      44140.145     -31256.65      -380.61247      49689.237      36.763832      36.763832      36.763832      1.2048106     -211.85706     -2297.9666     -1589.0423    
      6400   6400           306.11205      15.187696      15180.666      15169.684      3509.0243      11660.66       1455.9787      3695.0902     -4017.8767      128.72339     -2461.156       44120.461     -31260.561     -381.44176      49581.209      36.73717       36.73717       36.73717       1.2074357      701.23284     -1040.7268      385.05703    
      6500   6500           305.03308     -173.1647       14960.377      15085.438      3496.6558      11588.783      1495.8062      3627.7372     -4041.7994      136.80514     -2485.5927      44118.179     -31262.353     -381.90729      49520.771      36.722237      36.722237      36.722237      1.2089093     -2478.4528      660.74865      1298.2101    
      6600   6600           292.35489     -1006.0194      14345.258      15071.113      3351.3231      11719.79       1439.3457      3727.7669     -4005.2423      151.73141     -2441.1612      44110.175     -31262.825     -382.27633      49472.965      36.710417      36.710417      36.710417      1.2100775      77.4865       -1446.5438     -1649.001     
      6700   6700           300.19541     -491.74451      14758.062      15112.777      3441.2006      11671.577      1462.0617      3710.8231     -3969.596       163.03969     -2519.5782      44094.651     -31269.825     -382.36741      49461.18       36.707502      36.707502      36.707502      1.2103658     -391.85955     -177.54182     -905.83218    
      6800   6800           299.90154     -1559.7488      14024.483      15147.361      3437.8319      11709.529      1503.1904      3720.1686     -3969.7268      137.14737     -2521.208       44102.868     -31262.911     -383.12746      49363.059      36.683212      36.683212      36.683212      1.2127717     -2119.0772     -30.735266     -2529.4339    
      6900   6900           302.34566     -687.16056      14654.473      15148.688      3465.8493      11682.839      1458.779       3693.2029     -3979.02        136.01587     -2503.3751      44145.734     -31268.498     -383.49818      49315.34       36.671388      36.671388      36.671388      1.2139452     -1747.8728     -782.44328      468.8344     
      7000   7000           298.87104     -245.35853      14962.565      15139.557      3426.019       11713.538      1504.1704      3721.2155     -3988.5767      147.0983      -2530.5266      44122.805     -31262.648     -382.3569       49462.54       36.707838      36.707838      36.707838      1.2103326      714.20429     -1278.8128     -171.46709    
      7100   7100           301.82844     -942.33991      14514.516      15197.182      3459.9203      11737.261      1550.5895      3725.6175     -4016.2285      126.72415     -2452.9291      44063.822     -31260.334     -380.73341      49673.453      36.759939      36.759939      36.759939      1.2051935     -1823.7096     -682.07036     -321.23972    
      7200   7200           304.92222     -613.77458      14816.456      15262.764      3495.3849      11767.379      1456.6658      3812.3902     -4051.9871      163.33321     -2467.6165      44113.517     -31258.924     -379.31154      49859.657      36.805814      36.805814      36.805814      1.2006926      646.18986     -72.949132     -2414.5645    
      7300   7300           303.79397     -3092.6707      12968.714      15226.012      3482.4516      11743.56       1637.5849      3731.3467     -4077.8681      138.03463     -2524.7419      44098.423     -31259.218     -377.89058      50047.142      36.851889      36.851889      36.851889      1.1961946     -2976.2809     -3961.8984     -2339.8328    
      7400   7400           294.87946      268.0204       15330.722      15135.149      3380.2628      11754.886      1464.1405      3706.4628     -4006.048       122.38025     -2438.4403      44166.323     -31259.932     -377.99047      50033.916      36.848643      36.848643      36.848643      1.1965108      903.34094      385.47683     -484.75656    
      7500   7500           295.77693     -2073.633       13619.809      15133.007      3390.5506      11742.456      1495.4579      3813.6169     -4008.054       149.55835     -2524.7439      44082.178     -31265.557     -377.97001      50036.624      36.849308      36.849308      36.849308      1.1964461     -1391.0669     -2355.6098     -2474.2222    
      7600   7600           300.28749     -1181.2431      14308.988      15168.567      3442.2561      11726.311      1511.4858      3715.7235     -4022.526       129.13279     -2440.5595      44102.871     -31269.816     -379.03123      49896.531      36.814885      36.814885      36.814885      1.1998053     -633.01277     -1975.9958     -934.72074    
      7700   7700           308.79421     -320.2631       15037.66       15270.249      3539.7703      11730.478      1478.9169      3734.1492     -4032.2581      168.73842     -2445.9295      44101.223     -31274.361     -379.78677      49797.268      36.790456      36.790456      36.790456      1.2021969     -572.48955     -820.95423      432.65447    
      7800   7800           307.38715     -1546.1984      14207.44       15328.085      3523.641       11804.444      1519.5517      3772.7165     -4016.0322      145.45122     -2484.1376      44126.994     -31260.1       -380.55595      49696.617      36.765652      36.765652      36.765652      1.2046317      23.864762     -2114.9152     -2547.5447    
      7900   7900           305.49936     -862.85081      14612.53       15238.443      3502.0008      11736.443      1543.0716      3677.3311     -4001.5417      141.10082     -2497.2465      44131.511     -31257.784     -380.2268       49739.638      36.776258      36.776258      36.776258      1.2035898     -1778.5483     -1206.7363      396.73217    
      8000   8000           304.4888      -1225.3597      14291.569      15182.534      3490.4166      11692.118      1510.4665      3740.9644     -4037.641       128.39438     -2498.0049      44106.814     -31258.876     -379.33603      49856.438      36.805022      36.805022      36.805022      1.2007701     -1726.6356      383.11177     -2332.5554    
      8100   8100           298.30502     -2003.8712      13683.68       15139.792      3419.5306      11720.262      1512.2848      3723.9808     -4007.8422      151.9755      -2499.7248      44094.501     -31254.913     -379.57382      49825.205      36.797335      36.797335      36.797335      1.2015228     -1649.2657     -2283.0887     -2079.2591    
      8200   8200           290.91484     -1641.0454      13928.135      15117.422      3334.8156      11782.607      1499.6501      3719.0863     -3959.4751      159.87145     -2495.1489      44110.622     -31251.999     -380.58783      49692.455      36.764626      36.764626      36.764626      1.2047326     -1742.7995     -1955.3308     -1225.0059    
      8300   8300           297.94617     -516.46226      14811.612      15185.424      3415.4171      11770.007      1573.3584      3736.3531     -4007.9486      148.6828      -2475.8956      44053.069     -31257.612     -381.07108      49629.438      36.749078      36.749078      36.749078      1.2062623     -267.18221      149.03973     -1431.2443    
      8400   8400           309.13096      321.34535      15510.363      15278.241      3543.6306      11734.611      1528.783       3635.4986     -3994.4349      155.71612     -2414.9048      44081.317     -31257.365     -381.8362       49529.991      36.724516      36.724516      36.724516      1.2086843     -157.03205      1076.3249      44.743218    
      8500   8500           307.59576     -1736.9914      14002.665      15258.308      3526.0323      11732.276      1495.0409      3693.3795     -3993.6427      149.47473     -2496.2536      44138.345     -31254.068     -381.55106      49567.005      36.733662      36.733662      36.733662      1.2077817     -2161.3298     -12.033272     -3037.611     
      8600   8600           301.71561     -730.11828      14656.257      15184.553      3458.6269      11725.926      1469.5166      3690.9989     -3956.6234      147.81378     -2532.4678      44165.043     -31258.355     -381.18584      49614.496      36.74539       36.74539       36.74539       1.2066256     -774.98475     -464.6611      -950.709      
      8700   8700           299.85647     -645.75707      14695.471      15162.485      3437.3153      11725.17       1473.9495      3733.1204     -4017.0256      166.66112     -2510.8113      44135.419     -31256.143     -381.3825       49588.913      36.739073      36.739073      36.739073      1.2072481      127.08544     -1925.4036     -138.95309    
      8800   8800           303.43909     -1964.2554      13723.15       15143.483      3478.3835      11665.099      1423.3549      3721.2619     -3960.734       139.68073     -2517.3864      44113.026     -31254.104     -381.44259      49581.101      36.737144      36.737144      36.737144      1.2074383     -2035.8632     -1303.2252     -2553.6776    
      8900   8900           296.66667     -585.83871      14695.211      15118.092      3400.7499      11717.343      1522.3569      3664.387      -4026.4718      156.48193     -2504.9237      44157.945     -31252.433     -382.10276      49495.438      36.715974      36.715974      36.715974      1.2095281     -569.38713     -423.86029     -764.2687     
      9000   9000           296.52958      706.09338      15597.19       15087.083      3399.1784      11687.905      1396.2252      3753.4986     -3991.2597      153.19607     -2496.6149      44128.553     -31255.693     -381.78822      49536.215      36.726054      36.726054      36.726054      1.2085324      1008.5786      17.963709      1091.7379    
      9100   9100           296.35475     -1906.457       13736.773      15116.817      3397.1743      11719.643      1494.1767      3721.6895     -4024.8843      153.85476     -2476.4393      44108.678     -31257.433     -381.02674      49635.214      36.750504      36.750504      36.750504      1.206122      -3537.274      -41.287284     -2140.8098    
      9200   9200           298.20876     -1277.7464      14251.043      15177.477      3418.4272      11759.05       1524.5748      3765.1868     -4021.7914      138.18518     -2485.7694      44096.428     -31257.764     -380.40949      49715.751      36.77037       36.77037       36.77037       1.2041681     -920.9542      -1982.5546     -929.73036    
      9300   9300           304.12695     -923.49861      14572.752      15242.486      3486.2686      11756.217      1452.5892      3813.7844     -4041.7316      157.16516     -2465.0049      44099.266     -31259.851     -380.32559      49726.719      36.773074      36.773074      36.773074      1.2039025     -749.64661     -56.716056     -1964.1332    
      9400   9400           302.85357     -1226.2162      14369.741      15257.946      3471.6716      11786.275      1542.136       3733.9034     -4017.5213      157.09273     -2471.1929      44099.097     -31257.24      -380.78073      49667.281      36.758417      36.758417      36.758417      1.2053432     -1561.4893     -2035.3593     -81.799963    
      9500   9500           300.64343     -789.2452       14589.235      15160.604      3446.3363      11714.268      1484.2291      3690.7203     -4042.6704      161.31781     -2433.1407      44113.68      -31259.868     -380.99258      49639.663      36.751602      36.751602      36.751602      1.2060139     -976.75902     -1203.7036     -187.27301    
      9600   9600           298.30786      141.10715      15175.353      15073.339      3419.5632      11653.776      1424.6391      3705.9879     -4005.7196      157.86496     -2510.1575      44141.861     -31260.699     -381.51472      49571.727      36.734829      36.734829      36.734829      1.2076667     -205.31695      676.77663     -48.138228    
      9700   9700           296.82032     -1971.5057      13655.875      15080.599      3402.5112      11678.088      1512.7958      3703.5641     -4044.3177      149.11598     -2507.9496      44121.742     -31256.863     -381.67025      49551.526      36.729838      36.729838      36.729838      1.208159      -1534.5559     -2622.2564     -1757.7048    
      9800   9800           302.39366     -307.35014      14924.871      15147.453      3466.3996      11681.053      1506.7047      3702.5287     -4048.3622      143.00314     -2493.6694      44127.138     -31256.289     -380.85898      49657.076      36.755899      36.755899      36.755899      1.205591      -192.11588      432.96334     -1162.8979    
      9900   9900           304.42933     -2283.0856      13559.487      15214.681      3489.7349      11724.946      1484.1511      3709.8105     -4006.6983      156.58541     -2504.4136      44142.114     -31256.603     -380.44716      49710.828      36.769156      36.769156      36.769156      1.2042874     -2262.1038     -2599.8163     -1987.3366    
     10000   10000          306.03996     -1091.1157      14464.701      15255.088      3508.1978      11746.89       1506.1425      3756.9586     -4026.2976      162.8512      -2523.1396      44126.416     -31256.041     -380.7608       49669.881      36.759058      36.759058      36.759058      1.2052802     -1511.9119     -1307.6044     -453.83072    
     10100   10100          309.52737      842.09105      15935.137      15327.222      3548.1747      11779.048      1452.6637      3730.8314     -4008.5534      178.6868      -2451.6867      44134.304     -31257.199     -382.06564      49500.247      36.717163      36.717163      36.717163      1.2094106      962.37744      2162.5416     -598.64584    
     10200   10200          300.55408     -583.22565      14837.463      15257.961      3445.3121      11812.649      1487.0405      3726.6321     -3996.7866      153.34151     -2423.3958      44124.893     -31259.076     -382.55536      49436.879      36.701489      36.701489      36.701489      1.2109608      403.49163     -1747.7524     -405.41619    
     10300   10300          302.08852     -752.66907      14618.073      15162.149      3462.9017      11699.247      1482.7391      3748.9328     -4059.0796      151.5646      -2472.2809      44105.979     -31258.608     -381.56266      49565.498      36.73329       36.73329       36.73329       1.2078184     -760.44073     -751.77108     -745.79541    
     10400   10400          296.97943     -708.57021      14618.705      15132.736      3404.3351      11728.401      1520.2232      3627.6296     -4010.8491      151.72958     -2469.5449      44165.706     -31256.493     -380.2019       49742.896      36.777061      36.777061      36.777061      1.203511      -2343.8827      1499.9743     -1281.8023    
     10500   10500          299.67865     -751.59874      14615.219      15163.158      3435.2769      11727.881      1499.0762      3687.6822     -4003.9963      141.37166     -2490.1377      44157.205     -31263.32      -378.33383      49988.507      36.837492      36.837492      36.837492      1.1975977     -523.24763      16.35301      -1747.9016    
     10600   10600          300.77955     -1659.7821      14044.571      15256.988      3447.8967      11809.091      1595.6551      3687.4301     -4044.1438      143.67044     -2422.5773      44103.379     -31254.323     -377.5898       50087.008      36.861672      36.861672      36.861672      1.1952425     -1115.9709     -1864.2061     -1999.1694    
     10700   10700          302.57001     -979.0246       14572.235      15286.679      3468.4211      11818.258      1527.7427      3712.2246     -3982.2748      175.45562     -2450.7461      44089.699     -31253.844     -377.96074      50037.851      36.849609      36.849609      36.849609      1.1964167     -876.50685     -926.79931     -1133.7676    
     10800   10800          302.11682     -87.059153      15147.678      15210.973      3463.2261      11747.746      1504.839       3663.214      -4004.0654      156.15743     -2422.7857      44112.707     -31262.32      -379.3756       49851.238      36.803743      36.803743      36.803743      1.2008954      116.44765      391.22441     -768.84952    
     10900   10900          302.42846     -1593.6637      13950.624      15104.645      3466.7985      11637.846      1442.8201      3627.1217     -3996.0239      152.83735     -2451.5957      44124.815     -31262.128     -380.89405      49652.504      36.754771      36.754771      36.754771      1.205702      -1566.2594     -2868.3383     -346.39342    
     11000   11000          300.56399      661.89515      15594.725      15116.65       3445.4256      11671.224      1401.4944      3683.7586     -3988.0504      155.09578     -2474.0894      44153.223     -31260.207     -381.86887      49525.753      36.723469      36.723469      36.723469      1.2087877      2823.0253     -1078.7223      241.38245    
     11100   11100          300.62499     -1920.8945      13757.316      15145.125      3446.125       11699          1502.5867      3696.8195     -4034.4458      143.32749     -2491.5609      44145.679     -31263.405     -381.76399      49539.36       36.726832      36.726832      36.726832      1.2084557     -2726.2113     -782.60614     -2253.8662    
     11200   11200          303.44056     -446.62655      14853.037      15176.553      3478.4004      11698.153      1512.886       3650.0536     -3956.3075      153.87839     -2520.1043      44113.632     -31255.885     -380.77613      49667.881      36.758565      36.758565      36.758565      1.2053287     -1276.3367      1017.5478     -1081.0907    
     11300   11300          303.46264     -1618.9995      14065.122      15239.03       3478.6535      11760.376      1546.772       3778.0701     -4047.8343      150.89499     -2538.1607      44127.509     -31256.874     -380.39408      49717.765      36.770867      36.770867      36.770867      1.2041194     -3072.2323     -2478.5852      693.81898    
     11400   11400          302.52705     -1026.6376      14486.85       15230.084      3467.9287      11762.155      1526.9269      3704.4457     -4042.0742      143.35978     -2444.0314      44128.797     -31255.268     -380.98939      49640.08       36.751705      36.751705      36.751705      1.2060038     -1441.7336      319.25083     -1957.4301    
     11500   11500          304.00685     -2078.5458      13604.199      15109.903      3484.8918      11625.012      1468.8482      3679.2224     -4004.4291      132.66396     -2534.4122      44138.911     -31255.792     -380.751        49671.159      36.759373      36.759373      36.759373      1.2052492     -969.01787     -3173.7821     -2092.8374    
     11600   11600          293.94463     -2114.9924      13543.722      15073.497      3369.5467      11703.95       1476.483       3731.8084     -4002.7029      139.83395     -2531.5109      44147.55      -31257.511     -381.33137      49595.562      36.740715      36.740715      36.740715      1.2070863     -671.54953     -2883.9101     -2789.5175    
     11700   11700          296.23246      98.318943      15179.385      15108.432      3395.7724      11712.659      1491.5545      3682.4742     -3983.2052      149.54302     -2509.5193      44144.346     -31262.535     -382.19307      49483.742      36.713082      36.713082      36.713082      1.209814       178.96777     -25.933315      141.92237    
     11800   11800          302.9408      -1874.3416      13837.715      15190.16       3472.6715      11717.488      1492.6986      3763.1361     -4010.3068      148.42602     -2488.3317      44076.787     -31264.921     -382.25276      49476.015      36.711171      36.711171      36.711171      1.2100029     -2022.1748     -1825.0528     -1775.7972    
     11900   11900          305.45452     -1925.2416      13834.256      15225.076      3501.4869      11723.589      1535.2828      3750.2251     -4039.0974      139.80928     -2466.1808      44062.935     -31259.385     -381.79956      49534.744      36.725691      36.725691      36.725691      1.2085683     -1136.8686     -2509.5252     -2129.3308    
     12000   12000          304.05387     -513.5285       14821.405      15192.785      3485.4309      11707.354      1452.2066      3750.5874     -4051.7211      151.66676     -2462.9121      44125.05      -31257.523     -381.38834      49588.154      36.738886      36.738886      36.738886      1.2072666     -1365.6738     -705.99378      531.08204    
     12100   12100          295.48462      253.28655      15347.258      15163.532      3387.1999      11776.332      1521.9245      3719.476      -3995.8268      133.53582     -2472.0516      44126.959     -31257.685     -380.24429      49737.351      36.775694      36.775694      36.775694      1.2036452     -405.68765      958.68722      206.86008    
     12200   12200          299.45829     -1574.787       14007.725      15154.501      3432.7508      11721.751      1495.65        3703.4564     -4024.6587      153.49298     -2472.9527      44126.71      -31259.947     -378.76021      49932.234      36.823664      36.823664      36.823664      1.1989474     -2935.4786     -1697.0062     -91.876227    
     12300   12300          297.46896     -903.36315      14490.348      15149.79       3409.9467      11739.843      1551.0788      3670.3796     -4059.7758      151.83531     -2464.4863      44149.318     -31258.507     -377.83969      50053.883      36.853544      36.853544      36.853544      1.1960335      1942.1435     -2630.3186     -2021.9143    
     12400   12400          295.77776     -1753.8058      13882.281      15163.431      3390.5602      11772.87       1482.1745      3729.4712     -4003.5436      146.7412      -2435.2952      44114.226     -31260.904     -377.57487      50088.989      36.862158      36.862158      36.862158      1.1951953     -1818.6665     -838.58003     -2604.1709    
     12500   12500          308.89338      370.00381      15502.748      15232.89       3540.9072      11691.983      1492.1685      3618.3402     -4030.4386      139.76625     -2422.3237      44157.458     -31262.987     -378.17461      50009.553      36.842661      36.842661      36.842661      1.1970937     -461.58839     -225.92461      1797.5244    
     12600   12600          305.24076     -2552.0415      13385.685      15246.597      3499.0364      11747.561      1518.6413      3728.9203     -4051.648       148.64613     -2455.6116      44115.291     -31256.678     -378.25364      49999.105      36.840095      36.840095      36.840095      1.1973439     -3346.5914     -2584.7571     -1724.7761    
     12700   12700          306.48401      149.36179      15265.603      15156.863      3513.288       11643.575      1497.4864      3690.1751     -4090.7271      134.58552     -2443.2419      44113.22      -31257.923     -378.85219      49920.111      36.820684      36.820684      36.820684      1.1992386     -59.902317      304.87299      203.11471    
     12800   12800          298.37141     -1186.5254      14220.004      15083.41       3420.2917      11663.118      1499.2162      3734.6551     -4076.3255      144.68781     -2473.597       44099.632     -31265.151     -379.03851      49895.573      36.81465       36.81465       36.81465       1.1998283     -453.53712     -1442.6637     -1663.3754    
     12900   12900          299.45725     -1053.2733      14332.126      15098.945      3432.7389      11666.206      1536.3008      3657.6159     -4038.8832      135.15831     -2434.3199      44079.985     -31269.65      -378.85193      49920.146      36.820692      36.820692      36.820692      1.1992377     -3025.9946     -712.20357      578.37842    
     13000   13000          298.7092      -1690.2963      13929.706      15161.626      3424.1639      11737.462      1514.1797      3711.7258     -4057.6723      133.01436     -2428.1331      44125.176     -31260.829     -378.44404      49973.95       36.833916      36.833916      36.833916      1.1979466     -981.45533     -2229.5978     -1859.8358    
     13100   13100          300.24514     -1534.4191      14090.45       15209.986      3441.7707      11768.216      1500.5309      3757.6176     -4042.7439      135.28185     -2474.0608      44153.385     -31261.795     -378.03081      50028.577      36.847332      36.847332      36.847332      1.1966385     -2610.0328     -1533.1553     -460.06939    
     13200   13200          301.52904     -1662.9066      13990.591      15204.296      3456.4882      11747.807      1496.8382      3728.1829     -4037.2892      149.71927     -2452.0618      44122.755     -31260.337     -377.89926      50045.992      36.851607      36.851607      36.851607      1.1962221     -1105.324      -2468.2986     -1415.0973    
     13300   13300          302.88141     -2205.8641      13579.877      15189.717      3471.9907      11717.726      1515.8785      3687.4419     -4033.1061      157.86732     -2467.3937      44117.986     -31260.948     -377.93517      50041.238      36.85044       36.85044       36.85044       1.1963358     -2805.8854     -2836.7427     -974.96418    
     13400   13400          299.43347     -1013.5032      14444.917      15183.378      3432.4663      11750.911      1519.2726      3691.5651     -4024.4701      150.02592     -2456.6774      44134.539     -31263.344     -378.54631      49960.449      36.830599      36.830599      36.830599      1.1982703      197.80022     -370.66969     -2867.64      
     13500   13500          300.50582     -1018.8749      14414.217      15154.728      3444.7588      11709.97       1506.7159      3703.3305     -4016.0821      153.7167      -2505.3948      44132.833     -31265.15      -379.49861      49835.08       36.799766      36.799766      36.799766      1.2012848     -3011.9321      1368.6639     -1413.3565    
     13600   13600          294.6075      -759.75675      14509.75       15060.62       3377.1453      11683.475      1452.0675      3626.0519     -4016.6727      154.71426     -2414.4988      44141.585     -31259.773     -380.40532      49716.296      36.770504      36.770504      36.770504      1.2041549     -1201.4173     -897.75845     -180.09447    
     13700   13700          291.60253     -672.25197      14538.322      15025.887      3342.6987      11683.188      1471.7965      3668.7561     -4016.478       141.68426     -2419.2779      44096.865     -31260.158     -380.29517      49730.696      36.774054      36.774054      36.774054      1.2038063     -1628.4457     -802.95018      414.63992    
     13800   13800          298.88492     -253.32955      14945.37       15129.532      3426.1782      11703.354      1457.1137      3687.5185     -4017.5244      132.06223     -2410.8754      44120.671     -31265.612     -379.40841      49846.927      36.802682      36.802682      36.802682      1.2009993     -700.37463     -831.40121      771.78719    
     13900   13900          295.72284     -2711.3867      13204.748      15185.494      3389.9306      11795.564      1576.4751      3719.7734     -4020.7244      156.43647     -2461.1508      44087.911     -31263.157     -377.55824      50091.195      36.862699      36.862699      36.862699      1.1951426     -1652.662      -2710.2949     -3771.2032    
     14000   14000          302.7076      -986.45502      14470.021      15192.271      3469.9984      11722.272      1493.2339      3672.9101     -4009.7942      145.28592     -2424.1557      44106.016     -31261.224     -376.71346      50203.525      36.890233      36.890233      36.890233      1.1924685     -1027.7073     -1582.0473     -349.61048    
     14100   14100          300.02966     -1708.7258      13932.303      15184.363      3439.3005      11745.063      1541.2709      3815.231      -4052.3559      154.87055     -2483.917       44034.973     -31265.009     -376.41622      50243.169      36.899941      36.899941      36.899941      1.1915276     -2404.4615     -698.53657     -2023.1795    
     14200   14200          297.70259     -2591.6707      13269.811      15162.799      3412.6249      11750.174      1500.4329      3707.1319     -4015.7815      154.82264     -2386.9311      44054.915     -31264.416     -377.61852      50083.199      36.860738      36.860738      36.860738      1.1953334     -2857.8662     -2774.4518     -2142.694     
     14300   14300          301.09586      688.1465       15626.796      15126.097      3451.5226      11674.574      1426.3697      3702.1444     -4015.2405      158.46426     -2440.2702      44107.208     -31264.102     -379.07476      49890.801      36.813476      36.813476      36.813476      1.1999431      1001.3627      378.94708      684.12971    
     14400   14400          297.14213     -1235.5174      14178.561      15075.226      3406.2003      11669.026      1486.5814      3672.4333     -3979.9824      157.21336     -2469.4305      44066.869     -31264.658     -380.04907      49762.899      36.78199       36.78199       36.78199       1.2030272     -899.83237     -593.55191     -2213.1678    
     14500   14500          297.27678     -1536.8347      13939.703      15051.989      3407.7438      11644.246      1530.7986      3662.9737     -4042.7805      136.49986     -2508.2357      44120.801     -31255.811     -381.09357      49626.509      36.748355      36.748355      36.748355      1.2063335     -433.85014     -3036.7387     -1139.9152    
     14600   14600          298.43954     -204.8735       14987.068      15134.941      3421.0727      11713.868      1443.1464      3760.5763     -4016.3109      169.84045     -2465.1074      44081.062     -31259.338     -382.13626      49491.099      36.714901      36.714901      36.714901      1.2096341     -78.008958     -667.82838      131.21684    
     14700   14700          303.78121     -1013.9791      14477.633      15207.644      3482.3053      11725.338      1515.4931      3727.0523     -4023.8395      149.79966     -2470.8914      44088.405     -31260.681     -383.10806      49365.558      36.683831      36.683831      36.683831      1.2127103     -1831.8197     -912.79211     -297.32537    
     14800   14800          304.57228     -10.214995      15183.051      15190.405      3491.3735      11699.032      1448.9363      3767.5078     -4012.4216      148.58147     -2473.8621      44086.17      -31265.88      -383.085        49368.531      36.684567      36.684567      36.684567      1.2126373     -393.0835      -247.79386      610.23238    
     14900   14900          297.19464     -741.94343      14574.318      15109.813      3406.8021      11703.011      1392.8786      3717.5394     -3981.28        142.02164     -2402.8526      44101.191     -31266.487     -382.15237      49489.012      36.714385      36.714385      36.714385      1.2096851     -376.49579     -1823.892      -25.442446    
     15000   15000          290.7739      -1592.9445      13932.974      15087.687      3333.2         11754.487      1529.0167      3772.5623     -4047.6486      149.50257     -2473.5534      44087.991     -31263.383     -380.49383      49704.731      36.767653      36.767653      36.767653      1.2044351     -1712.3854     -1187.4584     -1878.9896    
     15100   15100          301.00907      920.8719       15781.413      15112.33       3450.5277      11661.802      1475.4767      3653.4364     -4050.3537      164.27211     -2451.7645      44130.928     -31260.193     -379.61229      49820.156      36.796092      36.796092      36.796092      1.2016446      1309.269       18.763508      1434.5832    
     15200   15200          299.56989     -2771.605       13125.275      15141.558      3434.0301      11707.527      1478.5649      3769.6331     -4042.4194      163.44844     -2495.2417      44094.305     -31260.762     -379.14134      49882.039      36.811321      36.811321      36.811321      1.2001539     -2465.2555     -2829.7622     -3019.7972    
     15300   15300          298.92541      231.11304      15329.474      15161.267      3426.6424      11734.624      1527.4238      3683.1559     -4034.433       145.20652     -2441.6033      44111.729     -31256.855     -378.96602      49905.117      36.816997      36.816997      36.816997      1.1995989     -578.8334       1003.7144      268.45808    
     15400   15400          298.09856     -2177.582       13595.092      15181.974      3417.164       11764.81       1504.4806      3788.1001     -4001.8466      143.56975     -2502.1441      44087.317     -31254.667     -378.48711      49968.263      36.832519      36.832519      36.832519      1.1980829     -3257.3409     -3051.7757     -223.62947    
     15500   15500          302.01025     -885.25852      14618.242      15263.387      3462.0044      11801.382      1496.4699      3735.0347     -3976.3711      149.3211      -2463.7468      44116.36      -31255.686     -378.47237      49970.209      36.832997      36.832997      36.832997      1.1980362     -1930.5244     -500.73541     -224.51578    
     15600   15600          301.77032     -889.82695      14669.459      15318.71       3459.254       11859.456      1503.3982      3760.809      -4002.5804      166.58469     -2421.9375      44111.065     -31257.883     -378.01941      50030.086      36.847703      36.847703      36.847703      1.1966024     -887.352       -651.33418     -1130.7947    
     15700   15700          304.49238     -1515.434       14136.459      15243.825      3490.4576      11753.367      1505.6019      3736.7003     -4021.7762      155.83087     -2468.2625      44109.357     -31264.084     -377.45675      50104.663      36.866003      36.866003      36.866003      1.1948214     -2074.9059     -1720.2792     -751.11692    
     15800   15800          301.93503     -1411.7413      14124.802      15154.821      3461.1422      11693.679      1529.5289      3651.6975     -4064.7333      159.59195     -2442.2374      44116.575     -31256.744     -378.03418      50028.131      36.847223      36.847223      36.847223      1.1966492     -499.13604     -2219.0144     -1517.0734    
     15900   15900          296.07682     -1315.6661      14167.721      15125.411      3393.9883      11731.422      1409.8337      3755.1098     -4003.4336      158.42901     -2488.0384      44159.105     -31259.583     -378.91512      49911.82       36.818645      36.818645      36.818645      1.1994378     -1216.819      -655.74022     -2074.4389    
     16000   16000          296.99471     -587.6501       14699.423      15127.008      3404.5103      11722.498      1513.4211      3692.1262     -4034.9391      138.17957     -2430.4353      44103.56      -31259.414     -379.0683       49891.651      36.813685      36.813685      36.813685      1.1999227      51.247167     -460.20169     -1353.9958    
     16100   16100          299.96571     -1119.6785      14381.444      15195.648      3438.5675      11757.081      1517.448       3731.5779     -4033.6676      148.05959     -2486.1626      44136.923     -31257.098     -379.29881      49861.33       36.806226      36.806226      36.806226      1.2006523     -2655.472      -700.39035     -3.1731476    
     16200   16200          306.10547      169.16566      15398.036      15275.131      3508.9488      11766.183      1563.7684      3680.4781     -4018.1153      152.56516     -2462.8801      44114.032     -31263.666     -379.63433      49817.264      36.79538       36.79538       36.79538       1.2017144      580.21666      269.77498     -342.49465    
     16300   16300          300.8551      -778.6566       14670.372      15236.04       3448.7628      11787.277      1549.129       3695.2062     -4055.7954      151.76089     -2386.4119      44096.383     -31262.995     -379.66961      49812.635      36.79424       36.79424       36.79424       1.2018261      1016.5739     -1651.5964     -1700.9473    
     16400   16400          303.82042     -365.28578      14889.956      15155.776      3482.7548      11673.021      1433.7012      3702.7446     -4057.3731      149.12021     -2415.9226      44126.145     -31265.394     -379.02333      49897.571      36.815141      36.815141      36.815141      1.1997803     -1448.9739     -1056.6989      1409.8154    
     16500   16500          294.36634     -1846.8404      13803.25       15151.391      3374.3808      11777.01       1583.8337      3725.1341     -4051.0734      144.9163      -2462.96        44093.818     -31256.659     -377.84646      50052.986      36.853324      36.853324      36.853324      1.196055      -1115.3107     -695.82401     -3729.3865    
     16600   16600          298.9615      -517.76156      14772.982      15150.19       3427.056       11723.134      1498.2111      3691.2421     -4078.0925      172.72141     -2451.7484      44149.872     -31259.073     -378.59103      49954.547      36.829148      36.829148      36.829148      1.1984119     -1140.4964     -101.68149     -311.10679    
     16700   16700          295.10141     -585.29112      14719.133      15144.731      3382.807       11761.924      1497.3088      3728.4959     -4066.8134      162.25418     -2440.8033      44138.489     -31257.007     -379.30964      49859.907      36.805876      36.805876      36.805876      1.2006866     -1188.6149     -590.38395      23.125486    
     16800   16800          299.29943     -2478.6724      13364.934      15166.948      3430.9297      11736.018      1538.0004      3688.2262     -4064.7002      137.72844     -2432.2872      44124.412     -31255.361     -379.38689      49849.754      36.803377      36.803377      36.803377      1.2009311     -2552.2992     -3443.7893     -1439.9289    
     16900   16900          300.18485      38.874189      15238.295      15210.002      3441.0795      11768.922      1438.2096      3746.8081     -4045.2007      159.02064     -2415.5731      44147.41      -31261.752     -378.97439      49904.015      36.816726      36.816726      36.816726      1.1996254     -497.36112      905.33801     -291.35432    
     17000   17000          307.28184     -2470.632       13430.471      15231.18       3522.4337      11708.746      1464.055       3713.7867     -4005.0226      150.395       -2453.1142      44101.361     -31262.715     -378.43016      49975.782      36.834366      36.834366      36.834366      1.1979027     -1794.7601     -2867.4495     -2749.6864    
     17100   17100          305.1163      -1272.6594      14247.419      15172.643      3497.6098      11675.033      1483.3619      3654.5724     -4042.6124      135.26152     -2419.0104      44121.061     -31257.602     -379.39066      49849.26       36.803256      36.803256      36.803256      1.2009431     -723.68923     -1802.5976     -1291.6915    
     17200   17200          297.69942     -1824.9093      13763.99       15084.355      3412.5885      11671.766      1455.5502      3768.3315     -4005.5098      130.54013     -2516.4424      44100.554     -31261.257     -381.21383      49610.853      36.744491      36.744491      36.744491      1.2067142     -1665.0579     -2571.4353     -1238.2348    
     17300   17300          296.82258      1334.3231      16033.218      15072.829      3402.5372      11670.292      1490.4986      3639.964      -4050.405       154.25537     -2401.2763      44097.957     -31260.702     -383.20847      49352.624      36.680627      36.680627      36.680627      1.2130282      1401.0548      521.40936      2080.5053    
     17400   17400          300.46325     -955.15789      14461.879      15150.759      3444.2709      11706.488      1523.3627      3748.9149     -4048.7059      151.01171     -2465.5665      44060.783     -31263.312     -382.43072      49452.992      36.705476      36.705476      36.705476      1.2105662     -709.22918      337.07337     -2493.3179    
     17500   17500          307.53852     -161.10983      15154.337      15270.654      3525.3761      11745.277      1470.3387      3764.037      -4022.5061      129.16833     -2455.7204      44111.567     -31251.607     -382.03401      49504.345      36.718177      36.718177      36.718177      1.2093105      819.30853     -586.42156     -716.21646    
     17600   17600          304.54776     -1973.8314      13817.834      15245.99       3491.0924      11754.897      1523.1185      3765.8195     -4009.5667      127.19818     -2523.8052      44125.523     -31253.39      -381.20261      49612.314      36.744851      36.744851      36.744851      1.2066787     -1266.6428     -2431.2568     -2223.5946    
     17700   17700          295.61935     -881.32469      14509.355      15147.577      3388.7442      11758.833      1482.2823      3784.767      -4024.4822      156.93522     -2484.9715      44101.792     -31257.49      -380.87732      49654.685      36.755309      36.755309      36.755309      1.205649      -1798.6644      97.945341     -943.25501    
     17800   17800          299.0306      -1003.4356      14389.663      15116.664      3427.8481      11688.816      1543.4861      3707.9726     -4047.8803      123.07945     -2470.4237      44089.069     -31256.486     -380.69371      49678.634      36.761217      36.761217      36.761217      1.2050678     -1096.6475     -1161.9937     -751.66565    
     17900   17900          291.77277     -1840.0801      13786.744      15120.335      3344.6501      11775.685      1549.2973      3794.9223     -4039.2937      148.8166      -2506.9287      44088.521     -31259.65      -380.57075      49694.685      36.765176      36.765176      36.765176      1.2046786     -245.33349     -2973.5744     -2301.3325    
     18000   18000          298.08165     -97.283407      15054.457      15124.92       3416.9701      11707.949      1469.2183      3707.0842     -4021.0311      143.51925     -2481.964       44149.147     -31258.024     -380.80536      49664.069      36.757624      36.757624      36.757624      1.2054212     -1652.9528      849.04178      512.06079    
     18100   18100          297.07362     -1789.4728      13884.045      15180.218      3405.4148      11774.803      1508.3489      3801.6319     -4035.7795      141.23296     -2488.6587      44106.521     -31258.493     -380.78811      49666.318      36.758179      36.758179      36.758179      1.2053666     -1382.756      -1454.7289     -2530.9335    
     18200   18200          307.78543      609.89102      15676.283      15234.586      3528.2065      11706.379      1504.5557      3748.5738     -4074.0765      161.27278     -2465.5132      44096.624     -31265.057     -380.84521      49658.872      36.756342      36.756342      36.756342      1.2055474      1070.2051      699.53242      59.935556    
     18300   18300          301.72745     -2424.0393      13433.747      15191.778      3458.7626      11733.016      1514.8859      3805.4676     -4004.1085      146.64875     -2534.301       44068.037     -31263.614     -380.30698      49729.152      36.773674      36.773674      36.773674      1.2038436     -2104.8779     -3722.6817     -1444.5583    
     18400   18400          296.93142     -1623.9181      13915.805      15094.242      3403.7848      11690.457      1496.6155      3757.3354     -4055.3861      127.47455     -2447.7798      44066.119     -31253.921     -380.08338      49758.407      36.780883      36.780883      36.780883      1.2031358     -1357.1734     -1679.7458     -1834.8351    
     18500   18500          299.37578     -582.61724      14663.949      15087.243      3431.805       11655.438      1433.4956      3782.4951     -4072.1332      146.06199     -2458.9934      44076.481     -31251.969     -379.63206      49817.562      36.795453      36.795453      36.795453      1.2017072     -792.24        -180.28338     -775.32834    
     18600   18600          299.66721     -1902.2822      13736.993      15119.468      3435.1457      11684.322      1513.9372      3726.988      -4050.4013      122.62544     -2480.4305      44112.969     -31261.366     -379.52374      49831.78       36.798953      36.798953      36.798953      1.2013643     -948.16403     -2975.7882     -1782.8944    
     18700   18700          299.95007      1075.1096      15938.881      15158.339      3438.3882      11719.95       1473.1388      3738.3217     -4055.2898      129.18926     -2427.6336      44119.973     -31257.749     -379.90704      49781.503      36.786573      36.786573      36.786573      1.2025776      427.5957       477.17464      2320.5586    
     18800   18800          297.36757     -2365.1483      13450.978      15167.026      3408.7844      11758.241      1524.8939      3777.493      -4031.6179      158.64114     -2485.5734      44077.44      -31263.036     -380.14583      49750.233      36.778869      36.778869      36.778869      1.2033335     -2617.4007     -2703.4046     -1774.6397    
     18900   18900          302.25544     -495.25294      14784.802      15144.292      3464.8151      11679.477      1495.4795      3731.4291     -4075.2973      130.6064      -2466.6255      44127.055     -31263.17      -379.97987      49771.962      36.784223      36.784223      36.784223      1.2028082     -1730.6064      442.61423     -197.76664    
     19000   19000          298.59936     -1350.8049      14153.117      15135.772      3422.9047      11712.867      1492.3579      3716.1197     -4026.9639      149.00965     -2493.093       44131.082     -31255.645     -379.15161      49880.689      36.810989      36.810989      36.810989      1.2001864     -2163.5573     -1700.0833     -188.77394    
     19100   19100          302.68945     -795.90031      14565.554      15145.473      3469.7902      11675.683      1461.7204      3727.8922     -4080.8554      145.77241     -2416.6608      44086.935     -31249.121     -378.54024      49961.249      36.830795      36.830795      36.830795      1.1982511     -1003.0927     -1138.1882     -246.42004    
     19200   19200          305.02554     -606.72752      14826.605      15269.212      3496.5693      11772.643      1539.3118      3734.3203     -4050.5339      159.36328     -2428.3404      44081.117     -31262.595     -378.09062      50020.663      36.845389      36.845389      36.845389      1.1968278      283.10268     -1429.7337     -673.55156    
     19300   19300          303.84583     -1827.1114      13977.786      15309.724      3483.0461      11826.678      1534.0411      3775.0134     -4059.8776      136.70307     -2405.0558      44102.017     -31256.163     -378.35754      49985.375      36.836723      36.836723      36.836723      1.1976728     -1051.1038     -1550.2923     -2879.9382    
     19400   19400          298.69345      202.11743      15368.699      15221.449      3423.9833      11797.465      1555.4336      3743.0496     -4060.588       149.37719     -2418.014       44086.225     -31258.018     -378.58832      49954.905      36.829236      36.829236      36.829236      1.1984033      900.28948     -25.136168     -268.80103    
     19500   19500          296.01758     -872.63199      14526.849      15162.793      3393.3092      11769.484      1529.6963      3701.9802     -4042.6945      152.42718     -2361.7582      44051.523     -31261.69      -378.47156      49970.316      36.833023      36.833023      36.833023      1.1980337     -282.53618     -320.36959     -2014.9902    
     19600   19600          301.7261      -2116.0266      13599.873      15146.734      3458.7472      11687.987      1491.5638      3686.5917     -4053.5047      152.21507     -2402.8755      44075.459     -31261.462     -377.30357      50125.005      36.870991      36.870991      36.870991      1.1943365     -2563.3016     -2186.8791     -1597.899     
     19700   19700          295.27185     -1087.8335      14340.144      15137.174      3384.7609      11752.413      1546.659       3704.7469     -4077.5365      153.30301     -2406.3123      44101.431     -31269.878     -376.45181      50238.418      36.898778      36.898778      36.898778      1.1916403      205.38501     -2372.5116     -1096.3738    
     19800   19800          293.3715      -1133.0766      14312.06       15142.769      3362.9767      11779.793      1467.0112      3756.6158     -3983.256       137.73387     -2463.4463      44127.221     -31262.087     -376.21108      50270.565      36.906647      36.906647      36.906647      1.1908783     -1200.0866     -227.61849     -1971.5246    
     19900   19900          300.55027     -1972.2759      13766.613      15210.403      3445.2685      11765.134      1552.8548      3690.3175     -4100.8369      139.84578     -2394.1964      44134.797     -31257.647     -376.7776       50194.979      36.88814       36.88814       36.88814       1.1926715     -2924.8929     -868.33108     -2123.6036    
     20000   20000          298.02098     -245.42728      15080.351      15259.968      3416.2747      11843.693      1478.8857      3778.4498     -4008.4858      145.52392     -2388.4341      44092.738     -31254.984     -376.87445      50182.079      36.88498       36.88498       36.88498       1.1929781      242.8593      -634.50111     -344.64002    
     20100   20100          298.12831     -2002.6374      13771.88       15239.335      3417.505       11821.83       1528.9291      3836.003      -4055.8538      154.95321     -2490.278       44105.141     -31257.064     -376.40778      50244.295      36.900217      36.900217      36.900217      1.1915009     -2775.4447     -1132.7595     -2099.7079    
     20200   20200          296.01715     -573.13125      14720.301      15139.991      3393.3043      11746.687      1463.2969      3726.1478     -4055.9751      139.97591     -2388.0771      44115.853     -31254.535     -376.65776      50210.948      36.892052      36.892052      36.892052      1.1922922      3.7035144      170.2348      -1893.3321    
     20300   20300          300.53385     -1648.7919      13885.405      15091.127      3445.0802      11646.047      1432.0439      3700.9207     -4037.4534      135.19979     -2453.3358      44123.797     -31255.125     -377.17241      50142.435      36.875264      36.875264      36.875264      1.1939213     -1432.3782      211.67408     -3725.6717    
     20400   20400          298.53465      27.157634      15130.218      15110.425      3422.163       11688.262      1502.7148      3664.0167     -4066.7837      137.4666      -2402.1005      44111.03      -31258.082     -378.45726      49972.205      36.833487      36.833487      36.833487      1.1979884     -679.96473      52.644924      708.79271    
     20500   20500          302.09712     -1836.935       13846.207      15179.629      3463.0003      11716.629      1503.5778      3764.4362     -4040.3956      129.15049     -2463.088       44084.176     -31261.229     -379.96847      49773.455      36.784591      36.784591      36.784591      1.2027721     -1755.3331     -692.83196     -3062.6399    
     20600   20600          308.26259     -1127.9079      14516.578      15332.172      3533.6763      11798.495      1536.4429      3727.6613     -4020.8205      151.38605     -2451.1385      44107.871     -31252.907     -381.43538      49582.038      36.737375      36.737375      36.737375      1.2074155     -1177.3867     -2812.4498      606.11266    
     20700   20700          304.28725     -250.83232      15104.625      15285.785      3488.1062      11797.679      1472.4857      3771.3495     -3970.4486      157.19427     -2484.735       44114.978     -31263.145     -381.89413      49522.477      36.722659      36.722659      36.722659      1.2088677      1007.1183     -655.13047     -1104.4848    
     20800   20800          301.12058     -781.05856      14615.015      15179.937      3451.806       11728.131      1516.1849      3619.3351     -4019.0779      152.89562     -2431.5696      44154.057     -31263.694     -381.34296      49594.054      36.740343      36.740343      36.740343      1.207123       208.87019     -2273.524      -278.52191    
     20900   20900          294.64557     -1199.2677      14247.122      15119.888      3377.5816      11742.307      1484.4759      3686.3041     -4020.9037      171.11019     -2440.455       44121.234     -31259.459     -379.0002       49900.616      36.81589       36.81589       36.81589       1.1997071      454.77348     -1375.8719     -2676.7048    
     21000   21000          296.92257     -539.47701      14730.145      15124.941      3403.6834      11721.258      1422.0382      3690.5506     -3995.9449      133.03458     -2391.4583      44122.641     -31259.603     -376.89554      50179.27       36.884292      36.884292      36.884292      1.1930449     -1451.0983     -796.02798      628.69524    
     21100   21100          298.51841     -1371.5172      14198.865      15207.153      3421.9768      11785.176      1536.333       3672.2971     -4017.7461      131.97353     -2419.5241      44144.417     -31262.574     -375.17842      50408.932      36.940477      36.940477      36.940477      1.1876094     -2368.3171     -2275.0594      528.82495    
     21200   21200          302.29791     -1623.8661      14086.477      15283.69       3465.302       11818.388      1453.2839      3757.8925     -4032.1503      167.49893     -2397.9062      44129.424     -31259.655     -374.11052      50552.824      36.975592      36.975592      36.975592      1.184229      -751.46598     -1535.5074     -2584.6249    
[...]
    495200   495200         304.14321     -1512.0851      14032.89       15127.882      3486.455       11641.427      1516.2843      3716.5551     -4063.2315      126.46287     -2525.3169      44130.095     -31259.422     -380.8787       49654.505      36.755265      36.755265      36.755265      1.2056534     -2454.1635     -2268.845       186.75326    
    495300   495300         301.23259     -1426.2877      14058.374      15091.944      3453.09        11638.855      1428.9616      3642.3345     -3954.9779      137.96587     -2462.488       44113.848     -31266.789     -380.61711      49688.631      36.763683      36.763683      36.763683      1.2048253     -732.23977      194.49204     -3741.1155    
    495400   495400         297.75592     -1156.1085      14276.318      15116.292      3413.2362      11703.056      1439.6726      3747.3675     -4015.6131      148.73882     -2498.1301      44142.048     -31261.028     -379.62404      49818.613      36.795712      36.795712      36.795712      1.2016818     -1101.0019     -1548.853      -818.47072    
    495500   495500         304.03748     -367.56911      14917.308      15184.821      3485.243       11699.578      1496.6221      3722.7238     -4053.3734      127.53878     -2472.6427      44139.206     -31260.497     -378.98022      49903.246      36.816537      36.816537      36.816537      1.1996438     -1522.3541      868.81472     -449.1679     
    495600   495600         301.47736     -1739.6727      13946.071      15211.222      3455.8959      11755.326      1499.0608      3682.0829     -4016.5883      120.16041     -2421.5709      44146.933     -31254.751     -379.26807      49865.373      36.80722       36.80722       36.80722       1.200555      -942.82441     -2545.3994     -1730.7942    
    495700   495700         295.76178     -384.34172      14919.77       15198.484      3390.377       11808.107      1485.2098      3794.338      -4050.5988      146.95599     -2470.3097      44154.136     -31251.625     -380.34683      49723.941      36.772389      36.772389      36.772389      1.2039698     -1267.7662     -572.43672      687.1778     
    495800   495800         298.12377     -765.58833      14504.401      15057.962      3417.453       11640.509      1450.0434      3658.9883     -4007.5987      127.63727     -2450.0913      44119.958     -31258.428     -381.46149      49578.644      36.736537      36.736537      36.736537      1.2074982     -1656.0833      360.10543     -1000.7871    
    495900   495900         293.83405     -973.70727      14307.348      15010.827      3368.279       11642.548      1450.8508      3757.4888     -4048.4486      142.36237     -2504.0314      44104.322     -31259.996     -381.76703      49538.965      36.726734      36.726734      36.726734      1.2084653     -853.03286     -1729.3184     -338.77053    
    496000   496000         296.32618      218.09727      15222.761      15065.348      3396.8469      11668.501      1412.7762      3693.1511     -4015.878       146.56367     -2457.2026      44146.636     -31257.546     -382.14669      49489.748      36.714567      36.714567      36.714567      1.2096671      939.98452     -373.92849      88.235782    
    496100   496100         300.2965      -2443.9937      13397.798      15164.872      3442.3594      11722.512      1544.8481      3695.964      -4026.2429      125.99673     -2469.5196      44108.591     -31257.125     -381.47553      49576.819      36.736086      36.736086      36.736086      1.2075426     -2606.4604     -2137.1162     -2588.4046    
    496200   496200         300.63175     -458.91895      14855.064      15186.678      3446.2024      11740.476      1449.8282      3748.4964     -3986.0644      163.58046     -2516.2329      44141.355     -31260.487     -381.70247      49547.343      36.728804      36.728804      36.728804      1.208261      -694.43835     -150.46761     -531.85089    
    496300   496300         297.81827     -1163.592       14287.49       15127.404      3413.9509      11713.453      1530.6779      3685.7809     -4011.9811      138.25062     -2497.6024      44124.96      -31256.632     -382.109        49494.63       36.715774      36.715774      36.715774      1.2095478      131.60789     -2189.6125     -1432.7713    
    496400   496400         294.37608      231.31376      15253.103      15085.899      3374.4925      11711.406      1508.2544      3685.8894     -3999.585       145.16196     -2492.6248      44125.876     -31261.566     -381.57246      49564.225      36.732975      36.732975      36.732975      1.2078494      396.31991      1213.4101     -915.78875    
    496500   496500         296.72944     -2572.6622      13195.407      15054.951      3401.4695      11653.482      1425.4311      3681.9532     -3938.537       142.96156     -2500.947       44108.082     -31265.462     -381.59056      49561.874      36.732395      36.732395      36.732395      1.2079067     -2810.9083     -1759.7385     -3147.3398    
    496600   496600         293.58799      1432.719       16076.163      15043.072      3365.4584      11677.613      1456.3439      3641.5053     -3994.602       134.80794     -2418.2167      44120.1       -31262.326     -382.51072      49442.649      36.702917      36.702917      36.702917      1.2108195      1365.6224      1232.1363      1700.3984    
    496700   496700         298.12306     -769.21077      14576.284      15130.923      3417.4449      11713.478      1472.964       3652.625      -3999.4258      158.83848     -2426.2397      44117.098     -31262.381     -382.52168      49441.233      36.702566      36.702566      36.702566      1.2108541     -337.11402     -675.2673      -1295.251     
    496800   496800         304.38582     -1050.8367      14418.124      15179.658      3489.2361      11690.422      1454.6054      3720.5063     -3996.9788      142.54646     -2464.1985      44098.907     -31264.966     -380.59877      49691.026      36.764273      36.764273      36.764273      1.2047673     -1029.9459     -2498.9241      376.36004    
    496900   496900         298.96357      103.99214      15274.318      15198.57       3427.0797      11771.49       1544.6719      3712.4838     -4052.3607      146.88161     -2418.9712      44097.863     -31259.078     -378.66272      49945.089      36.826824      36.826824      36.826824      1.1986388     -312.47419      1317.6588     -693.20823    
    497000   497000         298.74482     -2619.57        13275.124      15193.661      3424.5722      11769.089      1505.7799      3762.4884     -4009.0759      139.55659     -2466.0022      44093.054     -31256.712     -376.60068      50218.56       36.893916      36.893916      36.893916      1.1921115     -2272.2583     -3008.6929     -2577.7587    
    497100   497100         296.64927     -759.49504      14604.708      15161.508      3400.5505      11760.958      1479.5512      3780.0092     -4030.8547      142.14802     -2471.9573      44120.588     -31258.526     -376.22397      50268.842      36.906225      36.906225      36.906225      1.1909191     -746.87879     -185.50027     -1346.1061    
    497200   497200         297.08003     -2276.1156      13479.141      15141.836      3405.4883      11736.348      1547.566       3689.8465     -4029.7237      146.9904      -2411.0544      44055.262     -31262.539     -377.57491      50088.983      36.862156      36.862156      36.862156      1.1951954     -2702.157      -1746.0884     -2380.1014    
    497300   497300         297.68207     -596.63456      14689.791      15122.883      3412.3896      11710.493      1489.7364      3697.8593     -3974.8516      146.691       -2467.4861      44087.902     -31269.358     -379.97035      49773.209      36.78453       36.78453       36.78453       1.202778      -393.17797     -1445.0122      48.286544    
    497400   497400         298.50621     -109.25957      15031.311      15110.086      3421.8369      11688.249      1487.5965      3688.6468     -4020.4972      133.66186     -2450.2055      44110.921     -31261.874     -382.55359      49437.109      36.701546      36.701546      36.701546      1.2109552     -227.47916     -777.85025      677.55069    
    497500   497500         298.11094     -1840.8303      13811.512      15136.365      3417.3059      11719.059      1537.5148      3681.6668     -4009.2791      141.15217     -2510.4013      44139.415     -31261.009     -383.23672      49348.985      36.679725      36.679725      36.679725      1.2131176     -514.36995     -1464.0738     -3544.0471    
    497600   497600         301.20662      119.08719      15271.069      15185.327      3452.7923      11732.534      1452.932       3734.2985     -3955.3619      137.17405     -2496.9598      44128.289     -31267.837     -383.08349      49368.725      36.684615      36.684615      36.684615      1.2126325      496.97687     -123.39726     -16.318036    
    497700   497700         308.02964     -1000.1876      14502.067      15224.075      3531.0059      11693.069      1546.0602      3684.5191     -4027.0066      142.07772     -2486.1862      44099.716     -31266.111     -382.0857       49497.648      36.716521      36.716521      36.716521      1.2094741     -425.45983     -2363.8294     -211.27372    
    497800   497800         299.2526      -931.24886      14454.209      15127.198      3430.3929      11696.805      1479.414       3653.1116     -3993.3548      142.55901     -2465.0783      44140.614     -31260.461     -381.66227      49552.562      36.730094      36.730094      36.730094      1.2081338     -664.14665     -1939.8973     -189.70262    
    497900   497900         299.92447      39.167227      15097.67       15069.355      3438.0948      11631.26       1482.8479      3619.7805     -3991.5651      143.75482     -2497.8489      44138.245     -31263.954     -381.53276      49569.382      36.734249      36.734249      36.734249      1.2077238      955.24728     -3.2374455     -834.50815    
    498000   498000         297.88077     -702.40534      14577.243      15085.669      3414.6674      11671.002      1491.6103      3644.4833     -3989.2132      133.28992     -2431.9879      44086.398     -31263.579     -381.04923      49632.284      36.749781      36.749781      36.749781      1.2061932      734.15116     -1578.7422     -1262.6249    
    498100   498100         299.63719     -575.77856      14740.738      15157.88       3434.8016      11723.079      1493.9887      3704.5439     -4054.0664      154.86871     -2463.4807      44147.322     -31260.098     -380.70832      49676.728      36.760747      36.760747      36.760747      1.205114      -413.17911      748.94389     -2063.1005    
    498200   498200         302.75459     -1168.8315      14348.405      15196.638      3470.537       11726.101      1476.2019      3682.7641     -3970.4492      135.43491     -2465.0696      44126.365     -31259.146     -380.06508      49760.802      36.781474      36.781474      36.781474      1.2030779     -774.92726     -753.60464     -1977.9625    
    498300   498300         297.69491     -587.49337      14777.656      15205.088      3412.5369      11792.551      1543.2523      3703.0065     -3978.5696      142.87508     -2487.8685      44130.15      -31260.294     -379.10254      49887.145      36.812577      36.812577      36.812577      1.200031       146.70063     -936.52819     -972.65256    
    498400   498400         296.21935     -729.53645      14659.89       15191.334      3395.6221      11795.711      1479.3234      3765.818      -4028.3232      144.50877     -2439.64        44138.064     -31264.039     -378.62659      49949.856      36.827995      36.827995      36.827995      1.1985244     -1747.4704     -273.0876      -168.0513     
    498500   498500         304.07882     -967.07447      14471.014      15176.554      3485.7169      11690.837      1436.5619      3631.6335     -3981.7042      158.96312     -2450.3103      44158.11      -31262.417     -378.05917      50024.824      36.846411      36.846411      36.846411      1.1967283     -451.31383     -1947.5122     -502.39743    
    498600   498600         295.84603     -1461.1189      14102.107      15169.256      3391.3427      11777.913      1488.6826      3701.921      -3989.7035      153.83545     -2478.3375      44163.673     -31262.158     -377.64338      50079.902      36.859929      36.859929      36.859929      1.1954121     -1674.7392      607.7678      -3316.3852    
    498700   498700         293.82202     -2340.3262      13459.59       15165.168      3368.1411      11797.027      1553.2673      3778.8516     -4015.7412      129.45472     -2513.9614      44128.066     -31262.91      -378.46533      49971.139      36.833225      36.833225      36.833225      1.198014      -2759.7        -1532.8426     -2728.436     
    498800   498800         302.66521      497.43245      15547.328      15186.886      3469.5124      11717.373      1417.2098      3719.6223     -3971.3846      142.90684     -2463.3691      44132.713     -31260.325     -380.64501      49684.99       36.762785      36.762785      36.762785      1.2049137      183.28621     -679.90808      1988.9192    
    498900   498900         300.24273     -1713.6034      13948.582      15184.014      3441.743       11742.271      1532.7792      3709.7424     -4018.6022      148.75773     -2521.8821      44149.784     -31258.308     -382.57175      49434.762      36.700965      36.700965      36.700965      1.2110126     -1784.4204     -960.49216     -2395.8978    
    499000   499000         296.62633     -633.24217      14647.291      15101.109      3400.2875      11700.822      1496.0953      3702.2949     -4018.6356      146.57054     -2506.0451      44133.827     -31253.285     -384.8655       49140.137      36.627909      36.627909      36.627909      1.2182734      46.769098     -2324.9875      378.49189    
    499100   499100         297.9399       1182.3613      15886.053      15041.513      3415.3452      11626.168      1485.4286      3629.6137     -4051.8784      154.25134     -2484.3358      44151.731     -31258.643     -386.14552      48977.244      36.587392      36.587392      36.587392      1.2223253      1519.5742      836.93604      1190.5736    
    499200   499200         300.36571     -1880.6037      13697.805      15044.506      3443.1528      11601.353      1413.5653      3709.8298     -3987.6063      142.50802     -2523.7061      44109.453     -31262.691     -385.16546      49101.867      36.618398      36.618398      36.618398      1.2192229     -1841.8456     -2663.0997     -1136.8659    
    499300   499300         300.99615      478.3781       15488.072      15144.374      3450.3796      11693.994      1506.5903      3639.7172     -4004.1284      138.68828     -2463.5137      44137.872     -31261.232     -383.89773      49264.015      36.658661      36.658661      36.658661      1.21521        1500.4921     -1212.45        1147.0922    
    499400   499400         303.22503     -835.02803      14628.164      15231.946      3475.9297      11756.016      1469.3454      3712.8867     -3944.4517      142.86559     -2482.7006      44121.8       -31263.729     -381.45404      49579.612      36.736776      36.736776      36.736776      1.2074746      741.44398     -1961.4395     -1285.0886    
    499500   499500         299.7607      -1764.9027      13928.052      15210.101      3436.2174      11773.883      1522.0286      3759.2822     -3987.6995      143.89826     -2527.8268      44124.999     -31260.799     -379.69745      49808.982      36.793341      36.793341      36.793341      1.2019142     -2213.4013     -2539.3768     -541.9299     
    499600   499600         299.65709     -1370.0071      14163.476      15159.23       3435.0297      11724.2        1478.5086      3735.9637     -3987.2235      129.65644     -2501.8389      44128.088     -31258.954     -379.48275      49837.163      36.800278      36.800278      36.800278      1.2012346     -2610.9753     -277.93183     -1221.1142    
    499700   499700         298.9494      -338.29088      14891.003      15136.868      3426.9173      11709.95       1499.8025      3716.0549     -4020.4102      137.08748     -2464.1214      44101.249     -31259.712     -379.50379      49834.399      36.799598      36.799598      36.799598      1.2013012      985.2032      -519.5057      -1480.5701    
    499800   499800         296.1195      -1889.6593      13721.625      15094.058      3394.4776      11699.58       1504.9071      3743.3239     -4019.3536      137.32655     -2467.8171      44064.558     -31263.364     -379.76389      49800.268      36.791195      36.791195      36.791195      1.2021245     -3237.4091     -218.57765     -2212.9912    
    499900   499900         293.19098     -1029.1807      14279.81       15025.048      3360.9073      11664.14       1443.6429      3737.145      -4030.6303      139.8605      -2466.9179      44100.308     -31259.268     -380.90603      49650.942      36.754385      36.754385      36.754385      1.2057399     -1193.3292     -934.58891     -959.62409    
    500000   500000         298.64232     -912.81801      14437.669      15096.831      3423.3972      11673.434      1512.4705      3684.4751     -4048.1411      139.51375     -2480.1669      44126.562     -31261.279     -381.95627      49514.42       36.720667      36.720667      36.720667      1.2090644     -2248.9237      1158.3285     -1647.8588    
Loop time of 1805.18 on 1 procs for 500000 steps with 4520 atoms

Performance: 23.931 ns/day, 1.003 hours/ns, 276.981 timesteps/s, 1.252 Matom-step/s
100.0% CPU use with 1 MPI tasks x 1 OpenMP threads

MPI task timing breakdown:
Section |  min time  |  avg time  |  max time  |%varavg| %total
---------------------------------------------------------------
Pair    | 530.05     | 530.05     | 530.05     |   0.0 | 29.36
Bond    | 294.35     | 294.35     | 294.35     |   0.0 | 16.31
Kspace  | 504.05     | 504.05     | 504.05     |   0.0 | 27.92
Neigh   | 100.37     | 100.37     | 100.37     |   0.0 |  5.56
Comm    | 14.889     | 14.889     | 14.889     |   0.0 |  0.82
Output  | 5.2424     | 5.2424     | 5.2424     |   0.0 |  0.29
Modify  | 259.24     | 259.24     | 259.24     |   0.0 | 14.36
Other   |            | 96.98      |            |       |  5.37

Nlocal:           4520 ave        4520 max        4520 min
Histogram: 1 0 0 0 0 0 0 0 0 0
Nghost:          14901 ave       14901 max       14901 min
Histogram: 1 0 0 0 0 0 0 0 0 0
Neighs:              0 ave           0 max           0 min
Histogram: 1 0 0 0 0 0 0 0 0 0
FullNghs:  2.62697e+06 ave 2.62697e+06 max 2.62697e+06 min
Histogram: 1 0 0 0 0 0 0 0 0 0

Total # of neighbors = 2626972
Ave neighs/atom = 581.1885
Ave special neighs/atom = 5.5353982
Neighbor list builds = 16915
Dangerous builds = 0

# --- Cleanup ---
unfix npt_fix
unfix shake_fix
undump dump_npt

# --- Write Output ---
write_dump all custom /home/arz2/PolyJarvis/data/PLA1/lammps/mechanical/bm_series/bm_P-1000/bm_P-1000_last.dump id type mol x y z xu yu zu vx vy vz modify sort id
write_data /home/arz2/PolyJarvis/data/PLA1/lammps/mechanical/bm_series/bm_P-1000/bm_P-1000_out.data
System init for write_data ...
PPPM Kokkos initialization ...
  using 12-bit tables for long-range coulomb
  G vector (1/distance) = 0.34274582
  grid = 45 45 45
  stencil order = 5
  estimated absolute RMS force accuracy = 0.00025364719
  estimated relative force accuracy = 7.6385099e-07
  using double precision cuFFT
  3d grid and FFT values/proc = 140608 91125
Generated 21 of 21 mixed pair_coeff terms from sixthpower/sixthpower mixing rule

print "STAGE COMPLETE: NPT T=300.0->300.0K P=-1000.0->-1000.0atm steps=500000"
STAGE COMPLETE: NPT T=300.0->300.0K P=-1000.0->-1000.0atm steps=500000
quit
