units real
atom_style full
boundary p p p

# --- Force Field Styles ---
pair_style lj/class2/coul/long 9.5 9.5
kspace_style pppm 1e-6
dielectric 1.000000
bond_style class2
angle_style class2
dihedral_style class2
improper_style class2
special_bonds lj/coul 0 0 1
pair_modify mix sixthpower tail yes
neighbor 2.0 bin
neigh_modify delay 0 every 1 check yes
neigh_modify one 4000
# KOKKOS: package loaded via -pk kokkos on the command line

read_data /home/arz2/PolyJarvis/data/PEEK3/lammps/npt_prod300/npt_prod300_out.data
Reading data file ...
  orthogonal box = (5.1370875 5.1370875 5.1370875) to (51.918441 51.918441 51.918441)
  1 by 1 by 1 MPI processor grid
  reading atoms ...
  8720 atoms
  reading velocities ...
  8720 velocities
  scanning bonds ...
  3 = max bonds/atom
  scanning angles ...
  9 = max angles/atom
  scanning dihedrals ...
  18 = max dihedrals/atom
  scanning impropers ...
  4 = max impropers/atom
  orthogonal box = (5.1370875 5.1370875 5.1370875) to (51.918441 51.918441 51.918441)
  1 by 1 by 1 MPI processor grid
  reading bonds ...
  9480 bonds
  reading angles ...
  15104 angles
  reading dihedrals ...
  22512 dihedrals
  reading impropers ...
  4864 impropers
Finding 1-2 1-3 1-4 neighbors ...
  special bond factors lj:    0        0        1       
  special bond factors coul:  0        0        1       
     3 = max # of 1-2 neighbors
     6 = max # of 1-3 neighbors
     9 = max # of special neighbors
  special bonds CPU = 0.004 seconds
  read_data CPU = 0.266 seconds


# --- Thermo Output ---
thermo_style custom step time temp press enthalpy etotal ke pe ebond eangle edihed eimp evdwl ecoul elong etail vol lx ly lz density pxx pyy pzz
thermo_modify flush yes
thermo 100

# --- Trajectory ---
dump dump_npt all custom 1000 /home/arz2/PolyJarvis/data/PEEK3/lammps/mechanical/bm_series/bm_P-500/bm_P-500.dump id type mol x y z ix iy iz vx vy vz

# --- Restart Checkpointing ---
restart 10000 npt_1.rst npt_2.rst

# --- Initial Velocities (optional) ---
# Velocities read from data file

# --- SHAKE Constraints ---
fix shake_fix all shake 1e-4 1000 0 m 1.008
Finding SHAKE clusters ...
    3088 = # of size 2 clusters
       0 = # of size 3 clusters
       0 = # of size 4 clusters
       0 = # of frozen angles
  find clusters CPU = 0.003 seconds

# --- NPT Thermostat + Barostat (Nose-Hoover) ---
# T_damp = 100.0 fs  (heat bath coupling)
# P_damp = 1000.0 fs  (pressure bath coupling, ~10x T_damp typical)
# Ramp: T=300.0->300.0K  P=-500.0->-500.0atm
timestep 1.0
fix npt_fix all npt temp 300.0 300.0 100.0 iso -500.0 -500.0 1000.0

run 500000
PPPM Kokkos initialization ...
  using 12-bit tables for long-range coulomb
  G vector (1/distance) = 0.30701697
  grid = 36 36 36
  stencil order = 5
  estimated absolute RMS force accuracy = 0.0003766626
  estimated relative force accuracy = 1.1343082e-06
  using double precision cuFFT
  3d grid and FFT values/proc = 79507 46656
Generated 21 of 21 mixed pair_coeff terms from sixthpower/sixthpower mixing rule
Neighbor list info ...
  update: every = 1 steps, delay = 0 steps, check = yes
  max neighbors/atom: 4000, page size: 100000
  master list distance cutoff = 11.5
  ghost atom cutoff = 11.5
  binsize = 11.5, bins = 5 5 5
  1 neighbor lists, perpetual/occasional/extra = 1 0 0
  (1) pair lj/class2/coul/long/kk, perpetual
      attributes: full, newton off, kokkos_device
      pair build: full/bin/kk/device
      stencil: full/bin/3d
      bin: kk/device
Per MPI rank memory allocation (min/avg/max) = 37.86 | 37.86 | 37.86 Mbytes
   Step          Time           Temp          Press         Enthalpy        TotEng         KinEng         PotEng         E_bond        E_angle        E_dihed        E_impro         E_vdwl         E_coul         E_long         E_tail         Volume           Lx             Ly             Lz          Density          Pxx            Pyy            Pzz      
         0   0              339.38935     -303.02111      25849.206      26301.653      7779.2912      18522.361      3032.1149      5869.8752      5211.5417      431.98282     -1323.1161      15705.019     -10405.056     -785.18672      102380.76      46.781354      46.781354      46.781354      1.1973435      2323.0189     -2452.727      -779.35525    
       100   100            299.72909      697.87323      26469.25       25425.204      6870.2212      18554.983      2997.5522      5973.9371      5129.2842      438.16589     -1287.6157      15711.939     -10408.279     -783.65352      102581.07      46.811842      46.811842      46.811842      1.1950056      169.01007      226.85453      1697.7551    
       200   200            294.45066     -893.04883      23963.914      25304.757      6749.2318      18555.526      3000.6545      5892.2145      5261.693       425.08362     -1322.6916      15708.107     -10409.535     -780.84409      102950.15      46.867917      46.867917      46.867917      1.1907214      250.79577     -2079.941      -850.00122    
       300   300            296.76256     -361.18408      24707.872      25251.76       6802.2239      18449.536      3071.6994      5782.6347      5141.1519      447.86737     -1270.5552      15690.008     -10413.27      -778.54966      103253.55      46.913913      46.913913      46.913913      1.1872226      1604.5201     -1549.1827     -1138.8896    
       400   400            295.72306      71.978577      25495.274      25386.933      6778.3971      18608.536      3091.7308      5960.6896      5145.571       422.86364     -1310.1194      15705.738     -10407.938     -778.89131      103208.25      46.907053      46.907053      46.907053      1.1877436      1211.0507     -1348.4226      353.30764    
       500   500            299.76451     -990.25042      24025.962      25514.926      6871.033       18643.893      3059.1909      5806.7621      5304.1791      451.55003     -1258.4133      15692.271     -10411.646     -779.70094      103101.09      46.890811      46.890811      46.890811      1.1889782     -454.19098     -1795.151      -721.40922    
       600   600            300.716        225.99483      25868.073      25528.144      6892.8424      18635.302      3059.1457      5906.3412      5229.2363      429.44158     -1274.7615      15695.203     -10409.305     -779.43098      103136.79      46.896224      46.896224      46.896224      1.1885665      468.26512     -182.64895      392.36832    
       700   700            302.62634     -130.47262      25276.744      25473.38       6936.6302      18536.749      2998.1274      5922.0101      5196.6415      434.59331     -1317.9901      15709.924     -10406.556     -777.901        103339.64      46.926949      46.926949      46.926949      1.1862334      479.4033      -37.405697     -833.41546    
       800   800            297.52533     -1379.696       23274.058      25353.974      6819.7078      18534.266      3029.4342      5731.3246      5263.5688      454.35347     -1248.7971      15709.52      -10405.138     -777.68714      103368.06      46.93125       46.93125       46.93125       1.1859073     -766.83432     -1423.1941     -1949.0596    
       900   900            299.71602      1460.7525      27513.215      25312.163      6869.9215      18442.242      3047.6312      5953.493       5011.4846      415.75289     -1287.1316      15709.767     -10408.755     -778.06088      103318.41      46.923735      46.923735      46.923735      1.1864772      1555.4639      1072.9541      1753.8395    
      1000   1000           306.61601     -202.83608      25171.654      25477.015      7028.0791      18448.936      3025.2351      5797.304       5176.3558      426.08774     -1275.6873      15704.86      -10405.219     -778.75137      103226.8       46.909862      46.909862      46.909862      1.1875302     -319.67675     -999.8293       710.99782    
      1100   1100           304.43215     -1884.0685      22724.997      25558.533      6978.022       18580.511      3042.8355      5812.691       5337.7285      415.30566     -1338.3527      15711.187     -10400.883     -779.53403      103123.16      46.894158      46.894158      46.894158      1.1887237     -1989.113      -2603.4928     -1059.5997    
      1200   1200           299.8702       194.39966      25793.643      25501.068      6873.4555      18627.613      3081.1109      5992.1705      5121.5174      444.45199     -1309.4991      15704.095     -10406.234     -778.97842      103196.71      46.905304      46.905304      46.905304      1.1878764      123.16443     -144.41812      604.45266    
      1300   1300           296.79953     -902.15596      24035.777      25394.4        6803.0713      18591.329      3025.1552      5843.6094      5299.9033      433.51146     -1313.6178      15711.952     -10409.185     -778.4842       103262.23      46.915228      46.915228      46.915228      1.1871228     -1125.3874     -1425.6072     -155.47327    
      1400   1400           298.94641     -588.1131       24472.738      25359.14       6852.2808      18506.859      2995.8698      5893.3289      5174.26        432.08091     -1296.3972      15716.534     -10408.818     -777.85231      103346.11      46.927928      46.927928      46.927928      1.1861592     -1140.2849     -1474.2378      850.18334    
      1500   1500           299.73556      876.66086      26772.211      25452.539      6870.3693      18582.17       3035.516       5923.1483      5170.4014      419.12548     -1272.1099      15713.604     -10407.516     -778.8126       103218.69      46.908633      46.908633      46.908633      1.1876236      412.96433      827.63666      1389.3816    
      1600   1600           304.44944     -2076.2788      22476.881      25600.253      6978.4181      18621.835      2986.6917      5843.8771      5354.7458      430.84771     -1307.3223      15720.859     -10407.865     -779.34387      103148.32      46.897971      46.897971      46.897971      1.1884337     -1499.0167     -2178.6372     -2551.1826    
      1700   1700           302.10059     -123.02502      25365.415      25550.149      6924.5791      18625.57       2981.1978      5943.0012      5229.6513      435.01241     -1282.679       15724.045     -10404.658     -780.7524       102962.24      46.869752      46.869752      46.869752      1.1905816      495.6065      -841.75325     -22.92831     
      1800   1800           301.42126     -222.89904      25134.692      25469.042      6909.008       18560.034      3030.1481      5822.9813      5279.2898      423.19336     -1313.5351      15724.924     -10406.967     -781.5791       102853.33      46.853221      46.853221      46.853221      1.1918422      510.51108     -950.49693     -228.71127    
      1900   1900           297.33541     -8.8159985      25359.656      25372.858      6815.3546      18557.504      3065.5917      5873.3654      5182.8466      427.29332     -1309.2315      15724.987     -10407.348     -782.84243      102687.35      46.828004      46.828004      46.828004      1.1937687      509.93381      1119.6759     -1656.0577    
      2000   2000           297.27442      691.88645      26381.249      25346.084      6813.9564      18532.127      3018.4385      5901.0324      5167.3345      420.27405     -1291.6873      15723.916     -10407.18      -783.59583      102588.62      46.812991      46.812991      46.812991      1.1949176      1230.1184      375.5927       469.94831    
      2100   2100           299.28111     -1133.8083      23687.592      25388.149      6859.9526      18528.197      3068.8988      5820.6683      5252.6941      423.90096     -1356.9355      15725.038     -10406.068     -781.65598      102843.21      46.851685      46.851685      46.851685      1.1919595     -1212.5642     -701.18183     -1487.679     
      2200   2200           299.84908     -24.467667      25393.093      25429.896      6872.9713      18556.925      3064.3168      5808.9385      5261.9152      436.12158     -1325.3593      15718.325     -10407.333     -779.41863      103138.43      46.896472      46.896472      46.896472      1.1885477     -1103.6885      276.5707       753.71477    
      2300   2300           300.41574     -1020.1109      23959.283      25497.914      6885.96        18611.954      2990.4603      5869.564       5265.1805      442.91765     -1253.4136      15705.456     -10408.211     -777.28456      103421.6       46.939351      46.939351      46.939351      1.1852934     -1007.4506     -2106.8264      53.944479    
      2400   2400           304.25815     -1706.6294      22971.959      25545.657      6974.0336      18571.623      2966.5019      5862.3282      5341.4765      443.15429     -1345.6059      15712.063     -10408.295     -777.40767      103405.22      46.936873      46.936873      46.936873      1.1854812     -769.19896     -2408.454      -1942.2352    
      2500   2500           297.36602     -230.69896      25114.391      25461.77       6816.0562      18645.714      3034.5974      5924.7374      5229.5325      446.29338     -1289.056       15705.127     -10405.517     -778.59088      103248.08      46.913085      46.913085      46.913085      1.1872855      486.42812     -1204.4737      25.948703    
      2600   2600           295.47012     -749.69877      24187.955      25315.389      6772.5992      18542.79       3010.6228      5841.6892      5286.7073      439.20449     -1337.8811      15707.617     -10405.17      -779.58401      103116.55      46.893156      46.893156      46.893156      1.1887999     -180.32028     -1550.9538     -517.82227    
      2700   2700           297.07131     -612.10722      24407.148      25327.418      6809.3009      18518.118      2981.3444      5808.7056      5245.3677      445.72371     -1252.4631      15697.472     -10408.033     -779.79265      103088.96      46.888973      46.888973      46.888973      1.189118      -640.42451     -1059.1414     -136.75577    
      2800   2800           301.58615     -183.14775      25193.954      25469.491      6912.7875      18556.704      3030.4289      5853.229       5203.5818      439.95602     -1260.3788      15697.988     -10408.101     -779.27033      103158.06      46.899447      46.899447      46.899447      1.1883215     -729.97147     -459.22531      639.75355    
      2900   2900           298.64179     -1251.0009      23634.259      25517.915      6845.2985      18672.617      3062.0255      5847.5022      5271.9782      439.01083     -1250.6563      15709.24      -10406.484     -778.61551      103244.81      46.91259       46.91259       46.91259       1.187323      -585.39263     -2269.193      -898.41698    
      3000   3000           300.82345     -98.509627      25327.888      25476.101      6895.3053      18580.796      2959.4824      5955.551       5228.2176      450.63077     -1310.7565      15709.537     -10411.867     -779.21578      103165.28      46.900541      46.900541      46.900541      1.1882384      971.18458     -169.69156     -1097.0219    
      3100   3100           298.67482      549.57415      26227.41       25401.938      6846.0558      18555.882      3028.5724      5821.853       5222.3008      462.51347     -1276.9622      15707.233     -10409.628     -780.53318      102991.15      46.874139      46.874139      46.874139      1.1902473      348.42264      1144.8051      155.4947     
      3200   3200           298.16172     -173.76275      24986.763      25246.882      6834.2948      18412.588      2972.1621      5837.3663      5213.0934      435.32538     -1342.3535      15708.371     -10411.377     -783.16253      102645.38      46.821623      46.821623      46.821623      1.1942568     -602.2709      -364.61199      445.59465    
      3300   3300           295.46963     -225.55018      24859.433      25196.458      6772.5881      18423.869      2978.1149      5779.6979      5233.521       412.05629     -1284.4078      15716.998     -10412.111     -784.60011      102457.3       46.793009      46.793009      46.793009      1.196449       127.48337     -324.14689     -479.98701    
      3400   3400           297.90539     -1850.9519      22527.768      25302.723      6828.4191      18474.304      2916.5331      5796.0365      5413.1473      440.64787     -1390.1337      15706.011     -10407.938     -781.99925      102798.07      46.844828      46.844828      46.844828      1.1924829     -2739.508      -1752.3625     -1060.9852    
      3500   3500           302.03796      1068.0433      27007.792      25401.687      6923.1436      18478.543      3032.6729      5756.8716      5197.5041      442.8284      -1258.1186      15713.851     -10407.066     -779.61859      103111.98      46.892462      46.892462      46.892462      1.1888526      570.24166      74.456557      2559.4317    
      3600   3600           300.40008     -1258.8817      23588.589      25488.359      6885.6011      18602.757      3022.8502      5869.2447      5260.9809      449.13949     -1299.2888      15707.754     -10407.923     -776.87518      103476.1       46.947595      46.947595      46.947595      1.1846692     -1358.7217     -1157.0613     -1260.862     
      3700   3700           298.26442     -1421.9215      23362.313      25507.699      6836.6486      18671.051      3022.0451      5866.2098      5327.9092      444.54988     -1301.592       15717.921     -10405.992     -777.02908      103455.6       46.944495      46.944495      46.944495      1.1849038     -1933.6292     -858.12756     -1474.0079    
      3800   3800           300.16473     -351.91123      24960.688      25491.679      6880.2066      18611.472      3021.1649      5911.622       5220.6647      427.10305     -1274.4457      15713.823     -10408.46      -776.98635      103461.29      46.945356      46.945356      46.945356      1.1848387     -311.3001      -374.84583     -369.58777    
      3900   3900           298.35786     -205.64504      25088.123      25398.046      6838.7906      18559.255      3043.4676      5781.6474      5224.5634      447.09211     -1247.1107      15717.03      -10407.434     -777.91488      103337.8       46.92667       46.92667       46.92667       1.1862546      398.82698      539.91536     -1555.6775    
      4000   4000           296.53552      55.094165      25384.928      25302.088      6797.0199      18505.068      2998.6975      5792.5397      5251.6213      451.08326     -1289.6953      15709.107     -10408.286     -779.7056       103100.47      46.890718      46.890718      46.890718      1.1889853      259.93498     -98.572625      3.9201388    
      4100   4100           298.46952      272.84257      25713.558      25303.595      6841.35        18462.245      3023.9477      5719.6336      5207.0515      446.58589     -1231.138       15704.199     -10408.035     -780.25187      103028.29      46.879772      46.879772      46.879772      1.1898183      1112.5784      207.35455     -501.40521    
      4200   4200           302.66503     -274.39016      25077.091      25489.796      6937.5171      18552.279      3020.7068      5817.4504      5296.3405      429.85242     -1325.0687      15718.717     -10405.72      -779.46346      103132.5       46.895573      46.895573      46.895573      1.1886161      495.54425     -485.08897     -833.62577    
      4300   4300           302.17491     -864.52258      24229.882      25532.766      6926.2827      18606.484      3011.3671      5820.1631      5301.0844      449.70834     -1251.0678      15684.233     -10409.005     -777.92472      103336.49      46.926472      46.926472      46.926472      1.1862696      503.58297     -1062.5101     -2034.6406    
      4400   4400           301.98746     -1385.3027      23410.188      25499.01       6921.9862      18577.024      3094.1674      5786.2871      5312.6556      431.96848     -1346.3961      15704.036     -10405.694     -777.51796      103390.55      46.934654      46.934654      46.934654      1.1856493     -648.11477     -1990.3571     -1517.4362    
      4500   4500           302.63809      435.84656      26076.176      25421.142      6936.8994      18484.243      3028.5204      5794.2139      5195.4027      422.04618     -1272.447       15721.692     -10405.185     -780.07605      103051.51      46.883294      46.883294      46.883294      1.1895502      320.15203      51.635442      935.75222    
      4600   4600           298.60089     -379.65095      24762.78       25333.185      6844.3612      18488.824      2968.9406      5819.3851      5243.9021      436.19904     -1293.3147      15720.589     -10406.877     -780.31241      103020.29      46.87856       46.87856       46.87856       1.1899106     -73.513083      94.971537     -1160.4113    
      4700   4700           292.80957     -593.33643      24376.5        25268.677      6711.6158      18557.061      2959.3278      5820.0498      5311.4756      437.08874     -1274.6167      15709.973     -10406.237     -779.68114      103103.7       46.891208      46.891208      46.891208      1.188948      -380.0765      -806.42361     -593.50918    
      4800   4800           303.10352     -586.33727      24524.276      25407.315      6947.5679      18459.747      3098.7841      5768.1274      5244.0926      429.56914     -1385.4454      15711.947     -10407.327     -778.45692      103265.85      46.915776      46.915776      46.915776      1.1870812      275.87049     -1002.5197     -1032.3626    
      4900   4900           300.5917       1289.8272      27451.393      25511.935      6889.9932      18621.942      3125.6286      5800.9759      5124.4974      445.87578     -1186.2506      15716.775     -10405.561     -779.68337      103103.41      46.891163      46.891163      46.891163      1.1889514      2310.857       701.94381      856.68085    
      5000   5000           300.1906      -1472.1341      23307.23       25522.547      6880.7995      18641.747      2991.311       5808.1083      5387.5774      448.84507     -1307.06        15719.935     -10406.969     -779.07406      103184.04      46.903385      46.903385      46.903385      1.1880223     -725.07856     -2211.0503     -1480.2735    
      5100   5100           301.72825      925.06292      26848.436      25455.716      6916.0447      18539.671      3005.8056      5851.4315      5154.0301      436.1967      -1223.3351      15721.636     -10406.093     -778.70768      103232.59      46.91074       46.91074       46.91074       1.1874636      1107.1746     -41.741183      1709.7554    
      5200   5200           298.79432     -1289.2464      23397.422      25341.327      6848.7947      18492.533      2995.6565      5814.0206      5309.1577      420.75266     -1362.7317      15720.693     -10405.016     -777.54952      103386.36      46.934019      46.934019      46.934019      1.1856975     -733.32577     -1027.3136     -2107.0999    
      5300   5300           300.34993     -150.46391      25103.051      25329.884      6884.4515      18445.432      3009.3562      5781.1072      5204.7175      423.50698     -1283.2621      15714.544     -10404.538     -777.66607      103370.86      46.931674      46.931674      46.931674      1.1858752      868.05482     -374.6959      -944.75065    
      5400   5400           303.14151      506.63578      26286.354      25522.901      6948.4386      18574.462      3059.3565      5885.8879      5162.7731      433.27469     -1277.002       15716.583     -10406.411     -778.00189      103326.24      46.924921      46.924921      46.924921      1.1863873      1440.2186      645.42607     -565.73731    
      5500   5500           301.98468     -1253.7476      23672.488      25561.128      6921.9225      18639.205      3046.2338      5776.9245      5364.3526      444.15872     -1306.2845      15714.583     -10400.763     -778.26627      103291.14      46.919607      46.919607      46.919607      1.1867904     -1161.0639     -771.53555     -1828.6435    
      5600   5600           301.82016     -274.00925      25067.212      25479.343      6918.1514      18561.191      3005.5645      5833.0782      5281.487       443.89397     -1299.8604      15705.867     -10408.839     -779.46733      103131.98      46.895495      46.895495      46.895495      1.188622       677.94087      495.2139      -1995.1825    
      5700   5700           301.1753      -208.0901       25066.626      25379.319      6903.3702      18475.948      3028.5294      5790.5146      5242.7463      421.02149     -1298.9839      15699.721     -10407.6       -780.1906       103036.38      46.880999      46.880999      46.880999      1.1897249      905.82128     -871.75155     -658.34002    
      5800   5800           296.26473     -1645.8238      22896.684      25368.976      6790.8129      18578.163      3013.7121      5755.2787      5315.1126      452.27566     -1248.4955      15696.786     -10406.507     -780.46006      103000.8       46.875603      46.875603      46.875603      1.1901358     -1859.6897     -1386.927      -1690.8547    
      5900   5900           298.5404       718.55318      26520.047      25439.046      6842.9746      18596.071      3079.5813      5810.7262      5209.3903      431.03544     -1245.9288      15717.776     -10406.509     -779.29162      103155.24      46.89902       46.89902       46.89902       1.188354       476.05932      97.889913      1581.7103    
      6000   6000           302.78552     -809.8584       24441.428      25663.752      6940.2788      18723.473      3109.9654      5822.5237      5257.8773      447.4744      -1229.9794      15722.336     -10406.724     -776.76555      103490.7       46.949803      46.949803      46.949803      1.184502      -2020.6518     -715.59265      306.66928    
      6100   6100           302.05921     -1196.1751      23837.558      25647.859      6923.6308      18724.228      3042.7036      5899.8112      5324.8771      434.74694     -1292.8589      15719.735     -10404.787     -774.66012      103771.98      46.9923        46.9923        46.9923        1.1812914     -826.93974     -2227.5231     -534.06233    
      6200   6200           299.1854      -1021.6463      23982.442      25526.38       6857.7588      18668.621      3050.3809      5912.756       5271.2544      421.893       -1298.9802      15717.639     -10406.322     -775.77877      103622.34      46.969702      46.969702      46.969702      1.1829972     -908.01394     -569.68361     -1587.2413    
      6300   6300           297.12147     -1598.9569      23027.394      25432.757      6810.4507      18622.307      2979.2445      5833.8461      5380.6481      430.39133     -1295.3833      15699.649     -10406.09      -779.33341      103149.71      46.898181      46.898181      46.898181      1.1884177     -1686.3586     -2199.6588     -910.85343    
      6400   6400           297.38138      283.36548      25820.004      25395.257      6816.4082      18578.849      3090.869       5783.8137      5246.1595      433.8716      -1277.4621      15709.899     -10408.302     -782.13778      102779.86      46.842063      46.842063      46.842063      1.1926942      527.61197      112.05905      210.42542    
      6500   6500           303.43993     -246.56797      25093.875      25463.403      6955.2788      18508.124      3057.1341      5775.7318      5303.1784      438.19755     -1352.8436      15694.418     -10407.692     -782.27029      102762.45      46.839418      46.839418      46.839418      1.1928962     -180.21535     -827.85786      268.3693     
      6600   6600           303.92823     -69.944949      25510.446      25615.282      6966.4715      18648.81       3062.0098      5745.9217      5343.7957      445.98434     -1250.0327      15710.411     -10409.28      -782.19624      102772.18      46.840896      46.840896      46.840896      1.1927833     -394.58768     -254.04988      438.80271    
      6700   6700           308.00302     -371.54503      25113.633      25671.287      7059.8713      18611.415      3016.9247      5878.4689      5283.6506      443.72894     -1312.2086      15710.196     -10409.345     -781.11272      102914.74      46.862544      46.862544      46.862544      1.191131      -392.60089      21.602138     -743.63632    
      6800   6800           303.41447     -1641.3614      22993.903      25459.161      6954.6953      18504.466      2970.5108      5834.1012      5353.3392      442.37689     -1377.6507      15691.216     -10409.428     -780.56493      102986.96      46.873504      46.873504      46.873504      1.1902957     -2428.489      -1748.8416     -746.75355    
      6900   6900           296.5957      -449.55925      24714.188      25389.319      6798.3993      18590.92       3005.5526      5876.5878      5283.727       429.77644     -1313.8443      15716.871     -10407.751     -780.66751      102973.43      46.871451      46.871451      46.871451      1.1904521     -55.420059     -88.698302     -1204.5594    
      7000   7000           298.80278     -753.85906      24249.015      25381.374      6848.9887      18532.385      2962.6317      5934.1155      5226.1701      422.33196     -1302.0791      15694.797     -10405.582     -780.5006       102995.45      46.874792      46.874792      46.874792      1.1901976     -1308.0569     -675.49463     -278.02561    
      7100   7100           299.76526     -385.70736      24852.867      25431.23       6871.0501      18560.179      3019.2338      5896.2527      5214.7692      447.73636     -1305.5046      15694.859     -10407.167     -781.85302      102817.29      46.847749      46.847749      46.847749      1.1922599     -51.924271     -1031.8847     -73.313104    
      7200   7200           301.34935     -102.43605      25371.868      25525.444      6907.3597      18618.084      3099.7528      5895.6975      5210.7872      440.30154     -1321.1303      15700.528     -10407.853     -781.98485      102799.96      46.845116      46.845116      46.845116      1.192461       196.47522     -594.05843      90.275067    
      7300   7300           302.75594      82.595658      25719.528      25595.658      6939.6007      18656.058      3052.6769      5909.0956      5282.7893      432.30315     -1314.0087      15698.377     -10405.176     -781.73624      102832.66      46.850081      46.850081      46.850081      1.1920819      1006.4874     -414.91748     -343.78298    
      7400   7400           301.71128     -823.92936      24245.388      25481.122      6915.6558      18565.466      3014.1319      5839.7014      5304.0397      449.41462     -1328.1045      15693.703     -10407.42      -781.68581      102839.29      46.851089      46.851089      46.851089      1.192005      -266.08986     -2299.257       93.558776    
      7500   7500           298.01745      768.76381      26500.838      25348.346      6830.9879      18517.358      3081.7958      5875.4493      5124.6862      429.42189     -1310.6444      15723.153     -10406.503     -782.02814      102794.27      46.844251      46.844251      46.844251      1.192527       1022.0134     -217.87102      1502.1491    
      7600   7600           295.84687     -1366.8054      23326.292      25377.034      6781.235       18595.799      2977.5171      5853.9211      5291.0931      440.56387     -1249.392       15693.24      -10411.145     -781.38131      102879.37      46.857174      46.857174      46.857174      1.1915406     -656.02109     -2883.349      -561.04605    
      7700   7700           301.44979     -1044.5274      23922.943      25492.737      6909.662       18583.075      2996.1618      5854.2203      5302.3057      437.70889     -1320.2332      15722.505     -10409.593     -780.08891      103049.81      46.883036      46.883036      46.883036      1.1895698     -1699.292      -1270.6115     -163.67857    
      7800   7800           300.8551       284.86448      25969.563      25541.084      6896.0308      18645.053      2985.6966      5909.0549      5228.3092      434.71807     -1218.2445      15715.426     -10409.907     -779.42741      103137.27      46.896296      46.896296      46.896296      1.1885611      469.42978     -728.06986      1113.2335    
      7900   7900           301.47937     -712.52524      24452.029      25525.676      6910.34        18615.336      3035.4097      5848.7765      5295.1457      429.25342     -1301.752       15720.805     -10412.303     -778.04679      103320.28      46.924018      46.924018      46.924018      1.1864558     -1214.3513     -837.17205     -86.052335    
      8000   8000           298.69365     -918.56185      23977.17       25362.175      6846.4872      18515.688      3011.0856      5786.0253      5260.1622      425.59432     -1266.7335      15709.846     -10410.292     -777.54282      103387.25      46.934154      46.934154      46.934154      1.1856872     -767.63209     -879.79838     -1108.2551    
      8100   8100           295.21249      414.57513      25899.461      25275.006      6766.6942      18508.312      2994.6436      5855.0132      5172.738       433.0166      -1250.0357      15712.538     -10409.601     -778.33943      103281.43      46.918136      46.918136      46.918136      1.186902      -548.106        1074.9382      716.89318    
      8200   8200           298.21914     -794.91344      24161.659      25356.371      6835.6109      18520.76       2977.5994      5849.4838      5270.2606      425.33612     -1295.8632      15704.996     -10411.053     -780.05277      103054.58      46.88376       46.88376       46.88376       1.1895147     -40.41535      -1417.9347     -926.39024    
      8300   8300           300.09843     -628.10551      24502.367      25445.303      6878.6868      18566.616      3031.7501      5785.8945      5294.0477      425.80402     -1273.5065      15709.401     -10406.774     -780.93983      102937.52      46.866002      46.866002      46.866002      1.1908674      124.47658     -1509.3819     -499.41116    
      8400   8400           299.28834      207.59117      25805.393      25493.528      6860.1184      18633.41       2981.5803      5915.5057      5227.6461      442.38596     -1224.3669      15699.129     -10408.471     -780.38572      103010.62      46.877092      46.877092      46.877092      1.1900224     -549.35425      218.05334      954.07442    
      8500   8500           302.21957     -1289.3501      23598.295      25541.594      6927.3065      18614.288      3035.9726      5810.3227      5335.5119      455.08655     -1322.0277      15709.919     -10410.497     -777.85448      103345.82      46.927885      46.927885      46.927885      1.1861625     -1095.6452     -2191.9175     -580.48761    
      8600   8600           297.67249      244.74498      25983.757      25614.713      6823.0809      18791.632      3148.7817      5913.1111      5249.6606      448.42961     -1252.587       15693.997     -10409.761     -777.50334      103392.5       46.934948      46.934948      46.934948      1.185627       175.87582      69.795736      488.56337    
      8700   8700           303.68935     -802.45348      24388.622      25598.217      6960.996       18637.221      3020.623       5867.9732      5286.3451      438.90034     -1281.5451      15714.358     -10409.433     -777.7626       103358.03      46.929733      46.929733      46.929733      1.1860224     -359.13368     -834.51164     -1213.7151    
      8800   8800           301.29835     -899.05942      24087.284      25441.292      6906.1907      18535.101      2981.2562      5839.5782      5278.1928      449.56544     -1321.5016      15711.496     -10403.486     -778.45679      103265.86      46.915779      46.915779      46.915779      1.187081      -878.40505     -2040.5696      221.79638    
      8900   8900           302.50533     -1085.2199      23732.348      25363.612      6933.8564      18429.755      2950.7735      5754.403       5319.6026      431.78138     -1318.3431      15699.792     -10408.254     -779.93945      103069.56      46.886031      46.886031      46.886031      1.1893419     -2276.1243     -468.01276     -511.52271    
      9000   9000           300.1006      -163.16973      25142.771      25388.005      6878.7367      18509.269      2929.6641      5786.3637      5280.1162      456.1536      -1256.3998      15722.073     -10408.702     -780.05526      103054.25      46.883711      46.883711      46.883711      1.1895185      46.802388      311.49886     -847.81043    
      9100   9100           299.56459     -916.62571      24110.76       25489.534      6866.4504      18623.084      2993.1425      5917.6345      5238.3675      458.07309     -1278.663       15702.212     -10407.683     -779.41028      103139.53      46.896639      46.896639      46.896639      1.188535       49.702057     -1021.383      -1778.1962    
      9200   9200           302.92209     -64.677619      25489.824      25587.073      6943.4093      18643.663      3093.7463      5835.3588      5256.6494      457.36314     -1308.5387      15713.369     -10404.284     -779.71926      103098.66      46.890444      46.890444      46.890444      1.1890061      268.9639       632.65602     -1095.6528    
      9300   9300           305.14842     -767.54225      24425.493      25579.875      6994.44        18585.435      3013.0786      5861.0298      5293.6166      447.24127     -1324.9492      15702.044     -10406.625     -779.50657      103126.79      46.894708      46.894708      46.894708      1.1886818      196.27112     -1868.5218     -630.37607    
      9400   9400           302.99062      396.709        26028.752      25432.273      6944.98        18487.293      3005.6118      5868.6242      5099.4183      445.35057     -1227.2939      15702.531     -10406.949     -779.72917      103097.35      46.890245      46.890245      46.890245      1.1890212      523.17217      244.48373      422.47111    
      9500   9500           298.49574     -541.58759      24549.034      25364.847      6841.951       18522.896      2984.5997      5840.5736      5256.601       427.53512     -1298.2206      15717.711     -10405.904     -778.29695      103287.07      46.91899       46.91899       46.91899       1.1868372     -1246.5208      1004.6613     -1382.9033    
      9600   9600           301.46368     -1107.5364      23762.776      25435.6        6909.9804      18525.619      3011.2406      5828.012       5292.7148      427.71965     -1321.5252      15697.254     -10409.797     -776.20278      103565.74      46.961147      46.961147      46.961147      1.1836438     -466.36487     -850.35569     -2005.8887    
      9700   9700           300.64548     -49.489453      25482.207      25557.073      6891.226       18665.847      3044.235       5967.0379      5181.6359      423.43091     -1257.6957      15715.536     -10408.334     -774.98933      103727.9       46.985645      46.985645      46.985645      1.1817934      396.86555     -389.9649      -155.36901    
      9800   9800           299.77139     -363.04245      25038.695      25588.038      6871.1907      18716.847      3110.2846      5897.4491      5206.9449      442.00129     -1250.5928      15713.991     -10403.231     -774.78473      103755.29      46.98978       46.98978       46.98978       1.1814814      443.88947     -1566.2339      33.217025    
      9900   9900           302.53245     -717.9423       24441.06       25525.914      6934.4781      18591.436      2998.2437      5868.3091      5231.3543      433.00001     -1251.8122      15715.056     -10402.715     -775.86339      103611.04      46.967994      46.967994      46.967994      1.1831263     -1837.5219      109.01915     -425.32417    
     10000   10000          297.35884      402.46281      26088.331      25481.265      6815.8916      18665.373      3042.6789      5930.8959      5156.8726      452.74551     -1235.0258      15722.208     -10405.002     -777.24311      103427.12      46.940186      46.940186      46.940186      1.1852302      330.23217      1073.659      -196.50273    
     10100   10100          299.26768     -854.13365      24165.202      25450.008      6859.6448      18590.363      2991.7277      5842.4719      5273.0679      428.02404     -1247.9621      15709.14      -10406.107     -779.39159      103142.01      46.897014      46.897014      46.897014      1.1885065      167.1108      -2454.7031     -274.80862    
     10200   10200          303.32944     -1535.7208      23086.87       25393.958      6952.7463      18441.211      2983.493       5824.9742      5232.3932      411.91595     -1305.4318      15702.078     -10408.212     -780.39668      103009.17      46.876872      46.876872      46.876872      1.1900391     -1100.6944     -1497.978      -2008.49      
     10300   10300          292.76507      825.92769      26477.281      25239.222      6710.5958      18528.626      3034.2671      5853.4006      5104.4         441.23148     -1197.6391      15701.536     -10408.57      -782.10996      102783.52      46.842618      46.842618      46.842618      1.1926517      2136.586      -109.92528      451.12232    
     10400   10400          294.61168     -1304.0004      23285.196      25242.542      6752.9227      18489.62       2985.5042      5762.227       5324.6246      437.75517     -1322.2975      15710.045     -10408.239     -781.04719      102923.38      46.863855      46.863855      46.863855      1.1910311     -294.98502     -2544.7303     -1072.286     
     10500   10500          299.29481     -315.51985      24911.331      25385.249      6860.2668      18524.982      2981.6748      5853.6594      5244.1686      421.95727     -1288.0117      15716.732     -10405.198     -780.53222      102991.28      46.874159      46.874159      46.874159      1.1902458      749.59686     -238.67961     -1457.4768    
     10600   10600          297.93791     -19.975719      25402.064      25432.104      6829.1647      18602.94       3039.6094      5916.6236      5156.7496      429.64843     -1244.6531      15710.55      -10405.589     -779.6014       103114.25      46.892807      46.892807      46.892807      1.1888264      1031.1346     -1013.65       -77.411751    
     10700   10700          300.32768     -1134.3322      23750.92       25459.191      6883.9417      18575.249      3052.6627      5770.2302      5257.9391      439.26071     -1243.9682      15705.917     -10406.792     -778.48554      103262.05      46.915201      46.915201      46.915201      1.1871248     -2486.1784     -728.89487     -187.92343    
     10800   10800          302.52108      70.99855       25615.948      25508.827      6934.2175      18574.61       3102.2641      5911.515       5075.1818      429.09104     -1235.9439      15700.192     -10407.69      -777.04302      103453.75      46.944215      46.944215      46.944215      1.1849251      215.27474      13.576049     -15.855138    
     10900   10900          303.57171     -906.9215       24201.141      25570.961      6958.2995      18612.662      3052.165       5853.6739      5273.1623      436.86078     -1308.7977      15713.701     -10408.103     -776.19954      103566.17      46.961213      46.961213      46.961213      1.1836388     -1263.195      -993.464       -464.10548    
     11000   11000          302.89998     -126.49771      25401.93       25592.776      6942.9024      18649.874      2983.5425      5930.9459      5209.6146      456.44944     -1248.5429      15724.748     -10406.884     -777.0804       103448.77      46.943462      46.943462      46.943462      1.1849821     -350.9891      -639.78095      611.27691    
     11100   11100          304.27284     -159.96261      25221.563      25462.819      6974.3704      18488.449      2988.2141      5830.4942      5215.6282      430.49973     -1295.8205      15725.693     -10406.26      -777.33538      103414.84      46.938329      46.938329      46.938329      1.1853709      390.69357      15.547073     -886.12849    
     11200   11200          296.46953     -697.42728      24310.193      25361.446      6795.5073      18565.938      2997.1992      5876.5951      5188.6357      432.27203     -1249.1501      15727.33      -10406.944     -777.78385      103355.21      46.929305      46.929305      46.929305      1.1860548     -39.212142     -1578.67       -474.39974    
     11300   11300          301.1806      -700.69741      24338.156      25392.61       6903.4918      18489.119      3014.7697      5840.065       5163.8612      427.96607     -1252.2909      15701.535     -10406.788     -779.05828      103186.13      46.903701      46.903701      46.903701      1.1879982     -861.11231     -583.11246     -657.86746    
     11400   11400          301.59344     -382.29065      24921.806      25495.994      6912.9547      18583.039      2950.9933      5881.6612      5249.2314      434.4174      -1244.8001      15720.256     -10408.72      -780.56055      102987.54      46.873592      46.873592      46.873592      1.190289      -155.07754     -854.88582     -136.90858    
     11500   11500          301.93838      200.79655      25821.65       25519.927      6920.8611      18599.066      3029.6228      5908.7962      5178.8346      423.3913      -1232.6649      15700.107     -10409.021     -780.21582      103033.05      46.880494      46.880494      46.880494      1.1897633      746.15145      795.92795     -939.68975    
     11600   11600          301.08387     -2412.7982      21843.403      25474.384      6901.2746      18573.109      2917.1991      5876.2803      5369.6342      434.25793     -1330.1699      15714.108     -10408.2       -779.04809      103187.48      46.903906      46.903906      46.903906      1.1879827     -2260.2907     -2698.8683     -2279.2354    
     11700   11700          299.96771      195.49301      25736.563      25442.265      6875.6906      18566.574      3003.357       5899.2151      5229.6031      442.52738     -1337.2079      15734.844     -10405.764     -778.77254      103223.99      46.909437      46.909437      46.909437      1.1875625     -699.82901      366.47683      919.83123    
     11800   11800          300.41248      24.896879      25472.854      25435.368      6885.8852      18549.483      3055.0073      5872.2359      5192.5274      431.34246     -1301.9511      15707.735     -10407.415     -778.65842      103239.12      46.911729      46.911729      46.911729      1.1873884     -20.727013      224.79833     -129.38068    
     11900   11900          301.35674     -894.07307      24078.103      25423.318      6907.5292      18515.789      2995.3523      5782.2895      5248.8181      427.79888     -1230.2467      15699.472     -10407.695     -779.19918      103167.48      46.900874      46.900874      46.900874      1.188213      -879.06599     -211.52461     -1591.6286    
     12000   12000          303.17958     -463.16274      24721.945      25419.318      6949.3112      18470.006      2986.735       5786.0549      5239.156       436.38394     -1279.6571      15709.872     -10408.539     -778.63867      103241.74      46.912125      46.912125      46.912125      1.1873583     -89.570383     -476.11007     -823.80777    
     12100   12100          299.39665     -1210.8581      23587.46       25413.904      6862.601       18551.303      2987.29        5874.2072      5257.5148      442.68383     -1309.1797      15706.152     -10407.365     -777.23824      103427.76      46.940284      46.940284      46.940284      1.1852228     -848.19541     -1822.6691     -961.7097     
     12200   12200          301.15747      444.57208      26185.463      25515.428      6902.9616      18612.467      3080.3209      5835.8785      5162.1877      447.84578     -1241.2833      15730.819     -10403.302     -777.87895      103342.57      46.927393      46.927393      46.927393      1.1861998      675.2818      -129.88769      788.32213    
     12300   12300          302.73456      79.250411      25731.815      25612.365      6939.1108      18673.254      3152.193       5904.8795      5117.7024      453.74578     -1252.706       15705.309     -10407.87      -777.82699      103349.48      46.928438      46.928438      46.928438      1.1861206      859.65021     -745.727        123.82803    
     12400   12400          301.91757      225.88911      25884.601      25544.485      6920.3842      18624.101      3077.9131      5850.5515      5208.6326      439.92571     -1261.2703      15716.919     -10408.571     -778.639        103241.7       46.912119      46.912119      46.912119      1.1873588     -156.54916     -219.40116      1053.6176    
     12500   12500          298.83603     -318.38449      24946.566      25426.377      6849.7509      18576.626      3008.2341      5810.3083      5276.0434      438.11759     -1247.8176      15701.697     -10409.956     -777.94392      103333.94      46.926086      46.926086      46.926086      1.1862989     -48.528743      265.27171     -1171.8964    
     12600   12600          299.38331     -1177.6128      23642.12       25418.504      6862.2952      18556.209      3030.3581      5765.7752      5275.4122      427.40187     -1239.9121      15704.489     -10407.316     -777.20017      103432.83      46.94105       46.94105       46.94105       1.1851647     -965.95439     -1161.9003     -1404.9838    
     12700   12700          298.22507     -800.67873      24251.345      25459.152      6835.7467      18623.406      2993.8089      5866.562       5267.2453      446.59136     -1240.0303      15701.313     -10412.085     -777.19137      103434         46.941228      46.941228      46.941228      1.1851513      208.90837     -1811.8202     -799.12435    
     12800   12800          303.78334      465.37259      26258.481      25556.627      6963.1503      18593.477      3094.2144      5851.9072      5198.0704      445.03158     -1282.1358      15693.947     -10407.558     -777.35903      103411.69      46.937852      46.937852      46.937852      1.185407       1019.9257     -94.762372      470.95448    
     12900   12900          305.93224      7.6860459      25637.282      25625.705      7012.4061      18613.299      3104.3139      5796.0546      5182.023       426.01467     -1194.6073      15707.996     -10408.496     -778.36569      103277.95      46.917609      46.917609      46.917609      1.186942       236.0048      -636.96056      424.01389    
     13000   13000          300.97421     -897.43024      24132.353      25484.206      6898.761       18585.445      3012.4786      5882.6309      5229.2561      435.01758     -1276.8105      15712.121     -10409.248     -778.28452      103288.72      46.91924       46.91924       46.91924       1.1868183     -1812.1052     -1098.8332      218.64771    
     13100   13100          299.06412     -388.73143      24780.475      25365.642      6854.979       18510.663      2961.9976      5921.4407      5181.3675      424.94224     -1285.9593      15714.914     -10408.039     -778.82068      103217.61      46.908471      46.908471      46.908471      1.1876359      243.25858     -1170.8388     -238.61405    
     13200   13200          296.51713     -1578.5429      23011.901      25383.194      6796.5983      18586.595      2975.3687      5812.3647      5423.0815      446.73319     -1368.347       15707.504     -10410.109     -780.438        103003.72      46.876045      46.876045      46.876045      1.1901021     -2361.5938     -1481.932      -892.10294    
     13300   13300          301.06493     -771.2752       24311.144      25467.419      6900.8405      18566.579      3013.7187      5805.1413      5286.2454      441.77239     -1283.2536      15713.856     -10410.901     -782.01515      102795.98      46.844511      46.844511      46.844511      1.1925072     -1386.4377     -1064.6242      137.23626    
     13400   13400          302.16733      714.37346      26607.496      25536.722      6926.109       18610.613      3075.6302      5860.2555      5234.0883      431.70146     -1298.0958      15716.402     -10409.368     -782.15816      102777.18      46.841656      46.841656      46.841656      1.1927253      94.639039      1086.035       962.44631    
     13500   13500          303.90751     -1073.0647      24014.103      25627.355      6965.9965      18661.358      3094.9807      5798.8686      5290.1671      447.30603     -1266.9978      15705.684     -10408.651     -779.81385      103086.16      46.888548      46.888548      46.888548      1.1891504     -483.3606      -589.58121     -2146.2523    
     13600   13600          302.03373      122.32476      25794          25609.138      6923.0466      18686.091      3122.4077      5898.9074      5157.2652      416.84329     -1227.9916      15724.163     -10405.504     -775.76812      103623.76      46.969917      46.969917      46.969917      1.182981       1396.6189     -1593.3192      563.67457    
     13700   13700          299.23861     -1114.3047      23765.765      25457.179      6858.9785      18598.201      2991.9802      5884.7162      5232.1631      440.0881      -1261.0597      15712.77      -10402.457     -772.36253      104080.67      47.03885       47.03885       47.03885       1.1777877     -194.50267     -1897.6902     -1250.7213    
     13800   13800          296.23382     -1315.7794      23410.82       25408.369      6790.1045      18618.265      2964.1646      5986.225       5193.8605      432.20966     -1273.9774      15723.706     -10407.924     -772.24107      104097.04      47.041316      47.041316      47.041316      1.1776025     -2266.2327     -855.90047     -825.20499    
     13900   13900          301.69389     -556.07826      24616.091      25457.452      6915.2571      18542.195      2932.8618      5847.2301      5231.8182      446.57368     -1216.0928      15707.608     -10407.805     -774.85566      103745.79      46.988346      46.988346      46.988346      1.1815896      140.03121     -348.72797     -1459.538     
     14000   14000          305.07146     -305.41443      25113.149      25573.625      6992.6759      18580.949      3027.7644      5810.0386      5223.7247      440.6914      -1232.6337      15719.785     -10408.421     -777.58957      103381.03      46.933213      46.933213      46.933213      1.1857585     -90.885733     -1270.8394      445.48183    
     14100   14100          300.91928     -1068.3164      24030.522      25636.521      6897.502       18739.019      3037.4661      5908.1993      5333.6031      447.87595     -1294.6525      15712.007     -10405.48      -779.86916      103078.85      46.887439      46.887439      46.887439      1.1892347     -961.84863     -1668.2526     -574.84786    
     14200   14200          302.23741      372.66087      26074.923      25515.262      6927.7153      18587.547      3031.4808      5847.1162      5198.2356      445.57881     -1233.2822      15704.927     -10406.509     -780.64957      102975.8       46.87181       46.87181       46.87181       1.1904248      1065.5076     -298.89477      351.36979    
     14300   14300          296.91346     -2312.6256      21893.414      25372.317      6805.6828      18566.634      2932.7344      5858.7381      5357.2972      437.65258     -1326.6235      15714.304     -10407.469     -779.34583      103148.06      46.897932      46.897932      46.897932      1.1884367     -831.6243      -3333.3675     -2772.8849    
     14400   14400          296.29154     -349.36941      24820.964      25346.032      6791.4274      18554.604      3012.9064      5842.0092      5196.4647      415.59232     -1231.7656      15720.547     -10401.15      -780.07558      103051.57      46.883303      46.883303      46.883303      1.1895495     -154.52073     -283.48808     -610.09942    
     14500   14500          302.51788     -281.87538      25004.785      25428.616      6934.1442      18494.471      2998.5735      5915.4488      5192.163       422.90063     -1345.8601      15714.517     -10403.271     -779.70717      103100.26      46.890686      46.890686      46.890686      1.1889877     -1102.2999     -13.866548      270.54032    
     14600   14600          300.37969     -15.869589      25493.246      25517.061      6885.1338      18631.927      3049.3         5849.7551      5199.184       432.05946     -1207.1552      15712.777     -10403.993     -781.23027      102899.26      46.860193      46.860193      46.860193      1.1913103     -846.49564     -406.85415      1205.741     
     14700   14700          304.31159     -46.603112      25496.02       25565.993      6975.2586      18590.735      3082.4818      5881.8534      5184.7486      423.68739     -1292.866       15713.299     -10402.47      -780.81303      102954.24      46.868539      46.868539      46.868539      1.190674       220.12244     -133.13942     -226.79235    
     14800   14800          301.728        704.30779      26578.928      25519.73       6916.0389      18603.691      3030.7611      5918.023       5171.159       413.79331     -1253.6501      15728.971     -10405.366     -779.56554      103118.99      46.893526      46.893526      46.893526      1.1887717      827.29928     -219.36255      1504.9866    
     14900   14900          298.01089     -1381.5123      23303.162      25387.148      6830.8375      18556.311      2997.002       5772.0196      5317.088       425.68477     -1254.6391      15707.754     -10408.599     -777.18983      103434.21      46.941258      46.941258      46.941258      1.185149      -1307.1185     -1174.936      -1662.4823    
     15000   15000          295.22647     -954.35423      23914.009      25355.494      6767.0145      18588.479      3013.263       5869.2012      5256.5773      428.43202     -1283.6805      15712.925     -10408.238     -776.18754      103567.77      46.961455      46.961455      46.961455      1.1836206      167.8727      -824.77233     -2206.163     
     15100   15100          300.54876      583.50991      26340.483      25459.468      6889.009       18570.459      3044.0141      5913.9288      5178.1432      424.90968     -1287.8676      15706.542     -10409.211     -776.48328      103528.32      46.955492      46.955492      46.955492      1.1840715      2461.6879      888.5216      -1599.6797    
     15200   15200          300.70082     -1387.8891      23465.093      25556.007      6892.4946      18663.512      3050.2586      5774.4712      5367.4723      438.81667     -1268.2395      15707.291     -10406.558     -778.1904       103301.21      46.921131      46.921131      46.921131      1.1866748     -524.39519     -2475.1086     -1164.1634    
     15300   15300          301.30316      328.1773       26047.508      25554.124      6906.301       18647.823      3042.3499      5884.6569      5271.5071      433.86515     -1282.2222      15706.507     -10408.841     -779.81288      103086.29      46.888567      46.888567      46.888567      1.1891489     -7.4903455      657.48711      334.53515    
     15400   15400          308.66231     -115.227        25334.273      25507.572      7074.9834      18432.589      2989.2728      5839.2736      5160.8162      418.58783     -1280.6658      15713.279     -10407.975     -779.51446      103125.75      46.89455       46.89455       46.89455       1.1886938      523.45362     -253.57253     -615.5621     
     15500   15500          299.93526     -1051.6837      23883.856      25468.008      6874.9468      18593.061      3066.8234      5769.6508      5249.7425      416.2344      -1212.6203      15705.826     -10402.595     -778.31487      103284.69      46.91863       46.91863       46.91863       1.1868645     -938.87619      283.48523     -2499.6601    
     15600   15600          299.54891      880.54723      26768.688      25441.178      6866.0911      18575.086      3034.678       5894.4963      5188.6415      427.70213     -1288.4157      15726.128     -10408.144     -777.64573      103373.57      46.932084      46.932084      46.932084      1.1858442      1319.1963      966.26611      356.17929    
     15700   15700          298.554       -1176.929       23659.485      25436.318      6843.2864      18593.032      3035.2095      5768.9649      5287.5086      429.1275      -1246.2421      15725.031     -10406.567     -776.55243      103519.11      46.954098      46.954098      46.954098      1.184177      -855.16737     -1469.8307     -1205.7889    
     15800   15800          299.37942     -862.71419      24189.636      25493.903      6862.206       18631.697      3019.1821      5870.9874      5294.7679      434.86776     -1304.0456      15719.924     -10403.986     -775.47433      103663.02      46.975847      46.975847      46.975847      1.182533      -2158.9676     -448.82806      19.653143    
     15900   15900          298.7664       180.79866      25827.449      25554.208      6848.1547      18706.054      3034.5483      5890.6285      5231.0312      430.13965     -1191.063       15718.534     -10407.765     -775.74041      103627.47      46.970476      46.970476      46.970476      1.1829387     -1284.2952      706.9347       1119.7565    
     16000   16000          298.61612     -1207.6158      23685.733      25510.426      6844.7101      18665.716      3040.9113      5875.8044      5265.8568      433.65317     -1258.7478      15715.65      -10407.411     -775.9005       103606.08      46.967245      46.967245      46.967245      1.1831828     -1191.6141     -2299.501      -131.73225    
     16100   16100          298.6894       467.00572      26099.143      25394.986      6846.3898      18548.596      3002.914       5885.3182      5151.8067      429.42263     -1236.1916      15719.211     -10403.885     -777.53527      103388.25      46.934306      46.934306      46.934306      1.1856757      572.27713     -361.46117      1190.2012    
     16200   16200          296.58705     -1431.7606      23204.602      25359.783      6798.2009      18561.582      3017.392       5846.1409      5290.8607      416.84119     -1302.6339      15696.172     -10403.191     -778.8503       103213.69      46.907876      46.907876      46.907876      1.187681      -1593.6846     -1590.8602     -1110.7372    
     16300   16300          297.85874     -685.70365      24454.449      25482.878      6827.3499      18655.528      3006.174       5958.6904      5226.1935      437.49328     -1263.1165      15698.615     -10408.522     -781.68081      102839.95      46.851189      46.851189      46.851189      1.1919973     -1706.7378     -166.9588      -183.4143     
     16400   16400          304.54917      149.0483       25823.909      25600.914      6980.7042      18620.21       3008.3488      5965.1888      5214.5939      437.62066     -1301.7856      15704.155     -10407.911     -783.60986      102586.78      46.812712      46.812712      46.812712      1.194939       593.42864      825.22614     -971.5099     
     16500   16500          302.90676     -195.32452      25217.694      25509.738      6943.0577      18566.68       3058.0347      5859.6672      5202.8959      427.65542     -1287.0265      15713.804     -10408.351     -784.10762      102521.66      46.802804      46.802804      46.802804      1.195698       125.23494      662.43297     -1373.6415    
     16600   16600          301.38545      43.828164      25491.287      25425.571      6908.1873      18517.384      3066.8646      5822.1383      5198.2989      429.91177     -1310.1279      15713.161     -10402.863     -781.89405      102811.9       46.846929      46.846929      46.846929      1.1923225     -22.10905       309.42363     -155.83009    
     16700   16700          300.88988      19.9542        25445.664      25415.635      6896.828       18518.807      3004.0883      5872.9596      5190.4827      445.18203     -1292.6229      15706.382     -10407.665     -779.04969      103187.27      46.903874      46.903874      46.903874      1.1879851      952.1824      -1828.0794      935.75964    
     16800   16800          299.55408     -91.496223      25260.299      25398.265      6866.2095      18532.056      3100.8532      5849.5719      5189.9445      438.13732     -1353.1302      15714.864     -10408.185     -777.49555      103393.53      46.935105      46.935105      46.935105      1.1856152      111.6197      -1623.7116      1237.6033    
     16900   16900          299.42047     -339.51276      24884.145      25395.505      6863.1471      18532.357      2993.7761      5787.7711      5235.593       435.25238     -1212.2005      15699.812     -10407.646     -778.38879      103274.88      46.917145      46.917145      46.917145      1.1869773     -407.69091      5.1460327     -615.9934     
     17000   17000          301.32501     -1360.9901      23417.53       25469.707      6906.8017      18562.906      2971.6318      5887.9992      5241.0806      431.68225     -1270.1213      15709.86      -10409.227     -777.51221      103391.32      46.93477       46.93477       46.93477       1.1856406     -897.97146     -2302.2221     -882.77684    
     17100   17100          300.63526      136.68263      25745.552      25539.336      6890.9918      18648.345      2991.6856      5865.7811      5300.473       431.55694     -1242.2872      15710.015     -10408.88      -777.06933      103450.25      46.943685      46.943685      46.943685      1.1849652      606.60533     -1093.255       896.69754    
     17200   17200          303.52749     -1783.4004      22882.801      25574.553      6957.2859      18617.267      3017.3428      5815.4004      5345.9395      429.98552     -1286.4872      15702.241     -10407.155     -776.74964      103492.82      46.950124      46.950124      46.950124      1.1844777     -1013.8323     -2841.1247     -1495.2441    
     17300   17300          302.544       -142.55712      25279.009      25493.904      6934.7429      18559.161      2975.2774      5902.61        5172.578       421.77625     -1212.0397      15706.767     -10407.807     -777.7307       103362.27      46.930374      46.930374      46.930374      1.1859737     -972.439        431.1282       113.63945    
     17400   17400          298.30309     -609.03285      24438.822      25356.765      6837.5351      18519.23       3034.2291      5752.8867      5241.0424      429.34748     -1229.1612      15701         -10410.115     -777.84324      103347.32      46.928111      46.928111      46.928111      1.1861454     -2008.1807      772.63847     -591.55631    
     17500   17500          300.50648     -1335.2413      23339.9        25350.757      6888.0399      18462.717      2915.275       5822.4971      5285.4393      432.86053     -1299.4506      15715.326     -10409.231     -778.47715      103263.16      46.91537       46.91537       46.91537       1.187112      -2584.8295     -823.50167     -597.39275    
     17600   17600          297.64025      739.73775      26561.107      25447.526      6822.3419      18625.184      3007.2926      5951.8651      5159.6383      452.84021     -1249.7614      15711.879     -10408.569     -778.7949       103221.03      46.908988      46.908988      46.908988      1.1875966      889.79367      1234.2363      95.183318    
     17700   17700          301.26557     -1206.2863      23719.401      25534.892      6905.4395      18629.453      2955.6684      5883.4502      5324.8801      429.32153     -1279.367       15721.189     -10405.69      -778.97455      103197.23      46.905382      46.905382      46.905382      1.1878705     -1565.3993     -56.3509       -1997.1087    
     17800   17800          299.55502     -748.74711      24381.939      25507.582      6866.2312      18641.35       3089.8329      5800.217       5322.6578      435.55454     -1333.8413      15730.872     -10403.942     -779.83331      103083.58      46.888158      46.888158      46.888158      1.1891801      199.2788      -1301.6397     -1143.8805    
     17900   17900          299.59935      56.318115      25545.017      25460.554      6867.2472      18593.307      2966.1704      5860.7701      5274.959       452.27304     -1288.9937      15736.319     -10408.191     -781.71877      102834.95      46.85043       46.85043       46.85043       1.1920552      553.95241     -994.78945      609.79138    
     18000   18000          299.69063     -372.44694      24848.451      25406.431      6869.3394      18537.092      3042.8727      5744.5855      5285.2665      437.09678     -1280.8629      15713.138     -10405.004     -782.55171      102725.5       46.833802      46.833802      46.833802      1.1933254      64.374539     -860.36726     -321.3481     
     18100   18100          300.36326     -445.27956      24686.993      25353.853      6884.7572      18469.095      2917.188       5887.1491      5259.4076      428.21485     -1329.9765      15717.523     -10410.411     -782.82617      102689.48      46.828328      46.828328      46.828328      1.1937439      628.10479     -1846.7747     -117.1688     
     18200   18200          292.94442     -203.27539      24972.31       25276.959      6714.7067      18562.252      2973.4127      5847.011       5305.2191      423.46923     -1314.3938      15732.266     -10404.733     -782.26152      102763.6       46.839593      46.839593      46.839593      1.1928829      1401.0723     -1079.3457     -931.55277    
     18300   18300          293.62817     -529.48845      24524.359      25318.527      6730.3792      18588.148      3027.5914      5824.2554      5216.6794      449.69849     -1237.3683      15717.776     -10410.485     -781.64837      102844.21      46.851837      46.851837      46.851837      1.1919479     -753.56302     -465.54843     -369.35389    
     18400   18400          300.73983     -43.819919      25405.743      25471.604      6893.3887      18578.215      2973.2928      5865.6317      5328.3718      447.67465     -1347.3045      15719.409     -10408.86      -780.02459      103058.31      46.884325      46.884325      46.884325      1.1894717     -442.49879     -232.27408      543.31311    
     18500   18500          301.26095      18.879801      25556.874      25528.434      6905.3335      18623.101      3083.2144      5874.4877      5192.7414      432.86615     -1263.4778      15712.803     -10409.534     -778.28341      103288.87      46.919262      46.919262      46.919262      1.1868166     -272.74565     -787.33311      1116.7182    
     18600   18600          298.46031     -1349.1649      23491.903      25531.209      6841.1388      18690.07       3126.1104      5809.9946      5307.0953      437.97863     -1296.5629      15710.409     -10404.955     -775.6212       103643.39      46.972882      46.972882      46.972882      1.1827569     -839.04665     -1369.5022     -1838.9457    
     18700   18700          301.5086       137.67997      25637.997      25429.839      6911.01        18518.829      3013.0219      5791.0693      5210.0479      432.15054     -1248.3594      15727.674     -10406.775     -775.43349      103668.48      46.976672      46.976672      46.976672      1.1824707      701.97791     -318.10464      29.166654    
     18800   18800          295.76817     -1020.7025      23757.245      25299.075      6779.4311      18519.644      2962.6872      5815.0635      5262.9697      428.71837     -1270.687       15722.628     -10401.735     -776.12156      103576.58      46.962786      46.962786      46.962786      1.1835199     -963.52673     -1130.5742     -968.0065     
     18900   18900          295.14392     -424.23377      24711.47       25350.964      6765.1223      18585.842      3067.2881      5906.1939      5179.8749      430.04024     -1306.5317      15714.128     -10405.152     -777.74288      103360.65      46.930129      46.930129      46.930129      1.1859923      52.355597     -874.74904     -450.30787    
     19000   19000          299.53826      783.69021      26620.122      25441.202      6865.8468      18575.355      3023.4369      5905.3958      5209.8787      419.14193     -1284.5117      15709.439     -10407.426     -779.34024      103148.8       46.898044      46.898044      46.898044      1.1884282      1443.7278      444.23733      463.1055     
     19100   19100          302.17692     -1176.4406      23719.329      25486.974      6926.3289      18560.645      3060.3386      5847.1569      5221.8442      427.48124     -1295.0886      15705.998     -10407.085     -780.26503      103026.55      46.879509      46.879509      46.879509      1.1898384     -217.03493     -1616.5718     -1695.715     
     19200   19200          299.76008     -78.840948      25378.275      25496.555      6870.9315      18625.623      3018.2532      5920.0707      5252.307       438.02835     -1308.82        15716.039     -10410.255     -781.46477      102868.38      46.855506      46.855506      46.855506      1.1916679     -464.3263      -186.47954      414.28299    
     19300   19300          299.02414     -532.89572      24633.676      25433.036      6854.0627      18578.973      2980.7         5855.5548      5369.8853      433.07219     -1351.4277      15701.636     -10410.447     -781.56904      102854.65      46.853422      46.853422      46.853422      1.1918269     -67.233752     -1152.4156     -379.03782    
     19400   19400          298.68698     -757.50742      24180.17       25315.67       6846.3343      18469.335      2943.6086      5782.3558      5268.719       427.13405     -1253.0536      15711.667     -10411.095     -782.10833      102783.73      46.84265       46.84265       46.84265       1.1926493     -600.79471     -1401.4899     -270.23763    
     19500   19500          297.62058     -186.88743      24986.554      25267.479      6821.8909      18445.588      2965.2454      5859.4254      5184.8919      424.84238     -1289.7776      15710.095     -10409.135     -779.93319      103070.38      46.886156      46.886156      46.886156      1.1893324      838.76338     -1014.9798     -384.44585    
     19600   19600          299.01484      111.73751      25620.719      25452.543      6853.8495      18598.694      2979.8996      5883.5386      5259.8695      441.6461      -1268.7726      15711.166     -10408.653     -778.93585      103202.35      46.906159      46.906159      46.906159      1.1878115      554.12602     -250.82342      31.909919    
     19700   19700          300.60475     -1677.4767      22994.209      25522.243      6890.2924      18631.95       3086.4002      5853.041       5261.6176      430.78481     -1296.1264      15702.562     -10406.329     -777.93038      103335.74      46.926358      46.926358      46.926358      1.1862782     -1834.4847     -1939.9129     -1258.0326    
     19800   19800          301.41045      1414.3503      27616.78       25487.947      6908.7601      18579.187      3078.6996      5921.5384      5109.6012      421.96104     -1253.4296      15709.585     -10408.768     -778.90184      103206.86      46.906841      46.906841      46.906841      1.1877596      385.35633      1819.9068      2037.7878    
     19900   19900          296.50374     -88.767632      25274.049      25407.533      6796.2914      18611.241      3046.1181      5830.9819      5224.6376      427.15165     -1211.6396      15701.512     -10407.52      -779.6411       103109         46.892011      46.892011      46.892011      1.1888869      99.474314     -268.03594     -97.74127     
     20000   20000          297.07839     -553.26992      24544.305      25376.134      6809.4632      18566.671      3014.8818      5761.5836      5304.2605      426.78131     -1234.6639      15702.208     -10408.381     -779.77632      103091.12      46.8893        46.8893        46.8893        1.1890931      250.46746     -656.36118     -1253.916     
     20100   20100          298.97131     -610.41966      24488.127      25408.368      6852.8516      18555.517      2963.6727      5820.3472      5327.4188      439.17806     -1289.9981      15702.154     -10407.256     -777.66716      103370.72      46.931652      46.931652      46.931652      1.1858769     -586.74622     -902.36307     -342.14967    
     20200   20200          300.82693     -1644.6627      23037.233      25518.857      6895.3851      18623.472      2948.1172      5870.5568      5359.0713      423.65182     -1289.8421      15718.253     -10406.336     -776.97688      103462.56      46.945547      46.945547      46.945547      1.1848242     -526.66807     -2511.2249     -1896.095     
     20300   20300          303.01621     -1526.0968      23264.105      25565.89       6945.5665      18620.323      2987.4255      5852.3968      5317.1676      456.55234     -1303.5918      15717.269     -10406.897     -777.29259      103420.53      46.93919       46.93919       46.93919       1.1853057     -589.95704     -2806.5959     -1181.7374    
     20400   20400          301.56433      1149.3136      27251.6        25523.137      6912.2874      18610.85       2999.0097      5884.7192      5216.0683      438.03228     -1236.6352      15716.301     -10406.646     -779.55321      103120.62      46.893773      46.893773      46.893773      1.1887529      1923.0407      1343.2519      181.6483     
     20500   20500          299.125       -1304.4597      23387.313      25346.953      6856.3745      18490.578      3009.5207      5798.4497      5286.9749      412.83996     -1324.5889      15715.23      -10407.848     -780.4079       103007.69      46.876648      46.876648      46.876648      1.1900562     -1783.7942     -794.87008     -1334.7147    
     20600   20600          294.82678     -407.57671      24732.206      25343.519      6757.853       18585.666      3013.0101      5850.9153      5232.4085      447.36696     -1268.818       15718.969     -10408.186     -781.6522       102843.71      46.85176       46.85176       46.85176       1.1919537     -885.28436     -1034.6542      697.20841    
     20700   20700          299.76257      1070.1256      27046.116      25439.938      6870.9884      18568.95       3092.1379      5933.7671      5107.4396      421.41238     -1295.3301      15715.957     -10406.434     -781.10305      102916.02      46.862737      46.862737      46.862737      1.1911163      724.37448      1002.2811      1483.7213    
     20800   20800          302.6064      -1295.615       23546.557      25493.536      6936.173       18557.363      3058.5408      5809.1654      5294.5527      431.85054     -1337.4499      15710.268     -10409.564     -780.15662      103040.86      46.88168       46.88168       46.88168       1.1896731     -1397.0993     -1672.8397     -816.90586    
     20900   20900          298.6548      -531.14045      24667.149      25466.483      6845.5967      18620.886      3049.5778      5919.4275      5206.4817      417.04519     -1271.7251      15709.671     -10409.592     -779.01918      103191.31      46.904486      46.904486      46.904486      1.1879386     -779.09058      216.89412     -1031.2249    
     21000   21000          296.59587      314.63902      25812.976      25339.426      6798.4031      18541.023      2997.7986      5918.1543      5144.9114      420.56947     -1244.6088      15711.616     -10407.419     -778.95785      103199.44      46.905717      46.905717      46.905717      1.187845      -157.26719      284.55542      816.62882    
     21100   21100          294.84679     -1306.5971      23261.257      25227.582      6758.3117      18469.27       3043.2609      5784.6852      5180.6366      424.51382     -1266.662       15711.294     -10408.459     -779.02905      103190.01      46.904288      46.904288      46.904288      1.1879536     -1008.5043     -1016.6056     -1894.6813    
     21200   21200          299.08631     -178.88867      25054.673      25323.923      6855.4877      18468.435      2978.7213      5844.5434      5206.5931      429.05224     -1309.3806      15725.164     -10406.258     -778.92225      103204.16      46.906432      46.906432      46.906432      1.1877908      1031.1083     -660.25554     -907.51876    
[...]
    495200   495200         302.55942     -1088.6384      23914.003      25552.457      6935.0963      18617.361      3074.9391      5809.3655      5319.0713      433.63559     -1312.5908      15701.686     -10408.746     -778.96255      103198.82      46.905623      46.905623      46.905623      1.1878522     -992.45054     -897.16311     -1376.3016    
    495300   495300         300.83197     -757.0815       24454.432      25594.557      6895.5007      18699.056      3050.524       5830.2282      5262.5688      456.24112     -1176.4555      15685.067     -10409.118     -778.49767      103260.44      46.914957      46.914957      46.914957      1.1871433     -1149.9214     -1779.1169      657.79382    
    495400   495400         301.25289     -1037.6647      23935.424      25500.109      6905.1489      18594.96       3027.8046      5813.9764      5316.6415      419.90423     -1282.1116      15706.044     -10407.299     -777.49442      103393.68      46.935128      46.935128      46.935128      1.1856134     -494.92942     -1670.3485     -947.71612    
    495500   495500         299.47573      277.11834      25864.833      25446.314      6864.4137      18581.9        3125.5628      5815.0282      5175.7239      442.6698      -1290.1523      15719.988     -10406.92      -776.27756      103555.76      46.959639      46.959639      46.959639      1.1837578     -301.45438      1132.8851     -0.075692014  
    495600   495600         298.54397     -203.58506      25143.206      25450.529      6843.0564      18607.473      3106.6595      5842.8725      5157.2127      439.97882     -1232.4063      15700.358     -10407.203     -776.6361       103507.95      46.952412      46.952412      46.952412      1.1843046     -456.96978     -291.51101      137.7256     
    495700   495700         299.79712      1.4609742      25469.941      25467.742      6871.7804      18595.961      3095.9031      5865.3965      5192.2527      439.17747     -1302.9853      15710.752     -10404.535     -778.94086      103201.69      46.906058      46.906058      46.906058      1.1878191     -440.39516      939.59413     -494.81604    
    495800   495800         300.55626     -954.02247      24077.348      25508.086      6889.181       18618.905      2988.5453      5906.4495      5299.225       447.09222     -1308.0568      15692.996     -10407.347     -781.74626      102831.34      46.849881      46.849881      46.849881      1.1920971      31.274213     -692.27275     -2201.0689    
    495900   495900         300.22632     -557.47699      24656.16       25490.658      6881.6184      18609.04       2994.5955      5892.4562      5256.5882      448.93846     -1252.7457      15677.987     -10408.779     -783.19334      102641.34      46.821009      46.821009      46.821009      1.1943038      1434.1923     -1488.9653     -1617.658     
    496000   496000         299.3324      -1047.8102      23795.828      25364.225      6861.1283      18503.097      2964.5822      5859.2865      5342.7439      435.97151     -1408.5715      15716.428     -10407.344     -783.23821      102635.46      46.820115      46.820115      46.820115      1.1943722     -456.04076     -564.30503     -2123.0849    
    496100   496100         300.52004      1276.5903      27224.189      25310.187      6888.3507      18421.837      3104.509       5793.816       5043.018       426.02214     -1232.1239      15692.367     -10405.772     -781.9455       102805.14      46.845902      46.845902      46.845902      1.192401       621.75587      1237.9124      1970.1027    
    496200   496200         302.04454     -1030.0978      23837.354      25386.486      6923.2944      18463.192      3029.5195      5846.5885      5194.0031      433.35485     -1323.6316      15693.664     -10410.307     -779.57394      103117.88      46.893357      46.893357      46.893357      1.1887845     -998.21865     -1340.6249     -751.44988    
    496300   496300         302.05973     -811.94178      24326.618      25550.025      6923.6427      18626.383      3040.1324      5901.869       5213.0894      438.94161     -1272.465       15710.747     -10405.932     -778.07401      103316.67      46.923471      46.923471      46.923471      1.1864973     -1599.4651     -343.87463     -492.48566    
    496400   496400         303.82609     -21.471028      25531.175      25563.556      6964.1303      18599.425      3012.6679      5852.3118      5242.1742      459.39902     -1259.3531      15702.319     -10410.093     -777.37149      103410.03      46.937602      46.937602      46.937602      1.185426       8.2667486     -796.29534      723.61551    
    496500   496500         300.24697     -1310.6021      23510.916      25485.599      6882.0915      18603.507      3070.8063      5836.611       5291.777       432.0921      -1316.1401      15698.636     -10410.275     -778.10935      103311.97      46.92276       46.92276       46.92276       1.1865512     -1744.1665     -630.71392     -1556.926     
    496600   496600         302.20615     -477.76556      24677.82       25394.584      6926.9987      18467.585      2949.9661      5835.3872      5240.6935      434.02665     -1274.6149      15691.315     -10409.189     -781.45853      102869.2       46.85563       46.85563       46.85563       1.1916584     -1011.6123     -181.81759     -239.8668     
    496700   496700         296.88692     -672.03879      24332.247      25338.493      6805.0745      18533.419      2943.1695      5799.2926      5325.4857      442.28254     -1271.0102      15698.75      -10404.551     -782.99216      102667.71      46.825019      46.825019      46.825019      1.193997       741.53685     -1367.3076     -1390.3456    
    496800   496800         297.80637     -533.67764      24586.391      25386.032      6826.1496      18559.883      2973.1672      5856.1037      5272.9187      440.08293     -1287.8564      15708.666     -10403.2       -782.44019      102740.14      46.836027      46.836027      46.836027      1.1931553     -30.804773     -1165.4048     -404.8233     
    496900   496900         300.98473     -259.69115      25073.225      25462.969      6899.002       18563.967      3004.3951      5854.6302      5247.5732      447.44404     -1287.2955      15703.096     -10405.876     -781.16876      102907.36      46.861423      46.861423      46.861423      1.1912165      828.11106     -494.97455     -1112.21      
    497000   497000         302.65831     -807.13385      24253.164      25465.859      6937.3631      18528.496      3079.7984      5829.6382      5210.6499      433.49472     -1343.4704      15721.314     -10402.928     -780.29876      103022.1       46.878833      46.878833      46.878833      1.1898898      162.31567     -997.78793     -1585.9293    
    497100   497100         298.899       -595.52317      24536.99       25430.482      6851.1943      18579.288      3001.7203      5849.1108      5294.1017      421.60893     -1317.9783      15731.82      -10401.096     -781.40287      102876.53      46.856743      46.856743      46.856743      1.1915735     -113.93357     -1055.6415     -616.99448    
    497200   497200         297.72269     -699.00487      24374.437      25421.922      6824.2314      18597.691      3001.9701      5898.3293      5278.4901      440.40517     -1334.8211      15718.794     -10405.477     -782.34761      102752.3       46.837874      46.837874      46.837874      1.1930141      270.38535     -2190.0467     -177.35327    
    497300   497300         299.82555      294.03051      25881.925      25442.113      6872.4321      18569.681      3038.2874      5850.5457      5164.0758      439.15453     -1226.9828      15710.766     -10406.166     -783.77662      102564.95      46.809392      46.809392      46.809392      1.1951933      1348.5285     -144.77859     -321.65838    
    497400   497400         297.09064     -440.51134      24772.016      25432.076      6809.744       18622.332      3049.763       5858.5585      5242.5473      433.5285      -1274.6032      15720.18      -10407.643     -782.42204      102742.52      46.836389      46.836389      46.836389      1.1931276     -417.35863     -1508.9791      604.80372    
    497500   497500         300.69005     -886.83235      24039.247      25368.724      6892.2477      18476.476      2945.6095      5844.6325      5297.4119      426.23281     -1353.4682      15723.951     -10407.893     -782.03811      102792.96      46.844052      46.844052      46.844052      1.1925422     -816.79647     -692.23133     -1151.4693    
    497600   497600         294.46927     -167.70463      25062.15       25313.789      6749.6584      18564.131      3051.6994      5879.6916      5162.5912      440.41168     -1277.1069      15713.52      -10406.676     -781.33019      102886.1       46.858196      46.858196      46.858196      1.1914627      1232.2795     -968.59717     -766.79622    
    497700   497700         300.41171     -560.18527      24564.986      25406.186      6885.8676      18520.318      2904.9765      5940.2448      5197.9766      438.83689     -1279.4968      15721.924     -10404.144     -780.7283       102965.41      46.870234      46.870234      46.870234      1.1905448     -807.65842      381.67877     -1254.5761    
    497800   497800         301.85151     -741.30217      24414.679      25529.753      6918.8699      18610.883      3033.3149      5789.6569      5299.1665      459.92475     -1263.9895      15699.057     -10406.248     -779.39706      103141.28      46.896904      46.896904      46.896904      1.1885148      738.36719     -572.62641     -2389.6473    
    497900   497900         301.99345     -45.989188      25473.34       25542.663      6922.1235      18620.539      2975.6914      5984.481       5188.4673      433.99818     -1272.0547      15717.092     -10407.136     -777.76918      103357.16      46.9296        46.9296        46.9296        1.1860324      700.36998     -130.9918      -707.34574    
    498000   498000         302.62969     -725.81985      24401.384      25496.387      6936.7071      18559.679      3039.0113      5818.0528      5238.4947      442.32266     -1283.4846      15711.066     -10405.783     -777.10747      103445.17      46.942917      46.942917      46.942917      1.1850234     -57.981602     -1251.1423     -868.33565    
    498100   498100         296.83909     -2011.8572      22315.699      25351.506      6803.9782      18547.527      2950.7733      5875.6105      5333.2126      447.65528     -1350.6409      15694.783     -10403.866     -776.94489      103466.81      46.946191      46.946191      46.946191      1.1847755     -1255.8238     -2989.1449     -1790.6028    
    498200   498200         295.23694      927.21113      26636.755      25242.519      6767.2546      18475.264      2998.5836      5820.8437      5137.7852      455.28223     -1255.2718      15723.723     -10405.682     -779.66751      103105.51      46.891481      46.891481      46.891481      1.1889272      1197.7113      479.83008      1104.092     
    498300   498300         296.70809     -1727.0011      22719.702      25310.328      6800.9754      18509.352      2998.2606      5899.9603      5253.2292      441.69577     -1362.4137      15687.984     -10409.363     -781.54716      102857.53      46.853859      46.853859      46.853859      1.1917935     -944.36656     -2354.7683     -1881.8684    
    498400   498400         301.37464      998.63937      26890.703      25397.943      6907.9395      18490.003      3074.3713      5838.7301      5124.8797      420.7892      -1271.6904      15710.05      -10407.127     -784.30646      102495.67      46.798848      46.798848      46.798848      1.1960012      391.99519      1168.7472      1435.1757    
    498500   498500         300.47758     -395.28113      24873.006      25463.63       6887.3774      18576.252      3072.6096      5864.0281      5221.1353      450.71682     -1324.8857      15701.206     -10408.558     -784.62612      102453.91      46.792492      46.792492      46.792492      1.1964887     -719.39274     -780.76606      314.3154     
    498600   498600         304.50905     -810.48526      24273.081      25487.225      6979.7847      18507.44       2988.784       5774.9311      5310.1823      449.72634     -1311.7905      15702.44      -10406.833     -782.60457      102718.56      46.832748      46.832748      46.832748      1.193406      -1569.5944     -1708.4001      846.53877    
    498700   498700         301.60653      259.45408      25796.743      25407.796      6913.2546      18494.541      2988.4692      5873.4849      5171.8867      439.74723     -1282.1909      15711.069     -10407.926     -782.05483      102790.76      46.843719      46.843719      46.843719      1.1925677     -302.45404     -242.14636      1322.9626    
    498800   498800         293.69256     -1810.9095      22558.427      25278.829      6731.8551      18546.974      2994.3405      5831.2011      5335.8447      440.2453      -1340.0104      15692.468     -10407.116     -780.42454      103005.49      46.876315      46.876315      46.876315      1.1900816     -904.76266     -3362.3122     -1165.6535    
    498900   498900         297.93064     -930.36482      23921.768      25321.512      6828.9981      18492.514      2977.5189      5799.1007      5290.3871      449.93672     -1317.7775      15700.869     -10407.521     -779.24115      103161.92      46.900032      46.900032      46.900032      1.188277      -715.69728     -493.83883     -1581.5583    
    499000   499000         297.62806      814.56086      26686.655      25461.037      6822.0623      18638.975      3067.6665      5928.4214      5147.2505      445.09798     -1243.1763      15699.436     -10405.722     -779.17584      103170.57      46.901342      46.901342      46.901342      1.1881775      1078.8834      454.79758      910.00157    
    499100   499100         298.27048     -624.36314      24572.599      25511.92       6836.7877      18675.132      3071.614       5821.2839      5267.1386      421.87895     -1206.5224      15708.382     -10408.642     -779.27459      103157.49      46.899361      46.899361      46.899361      1.188328      -396.68145     -948.42693     -527.98103    
    499200   499200         302.33408     -647.26906      24514.309      25487.833      6929.9312      18557.902      2970.7247      5857.1641      5234.1147      444.21923     -1248.3881      15705.65      -10405.583     -779.48138      103130.13      46.895213      46.895213      46.895213      1.1886434     -1477.0886     -355.5341      -109.1845     
    499300   499300         299.73005     -15.686225      25361.747      25385.305      6870.243       18515.062      2965.5479      5916.5022      5211.0265      430.1268      -1300.5848      15703.528     -10411.084     -780.61135      102980.84      46.872575      46.872575      46.872575      1.1903665     -530.12504     -914.36749      1397.4339    
    499400   499400         296.41965     -1893.4754      22473.919      25312.906      6794.3639      18518.542      3017.599       5810.25        5231.3803      434.9662      -1254.7918      15689.922     -10410.784     -781.92203      102808.22      46.846371      46.846371      46.846371      1.1923652     -2512.4039     -2502.7272     -665.29512    
    499500   499500         297.88914     -114.25279      25142.386      25313.678      6828.0468      18485.632      3030.3089      5881.5891      5122.1914      425.3956      -1262.213       15694.626     -10406.266     -781.98273      102800.24      46.845158      46.845158      46.845158      1.1924577     -673.21459      679.07436     -348.61815    
    499600   499600         298.88515      479.38792      26175.001      25455.166      6850.8767      18604.289      3109.8429      5949.2109      5165.9751      437.01337     -1365.8665      15715.939     -10407.826     -780.76668      102960.35      46.869466      46.869466      46.869466      1.1906034      911.73271      308.75549      217.67555    
    499700   499700         301.84208     -1031.4994      23994.607      25544.344      6918.6537      18625.69       3032.9487      5836.366       5321.8689      453.04244     -1314.2304      15703.137     -10407.443     -780.32947      103018.04      46.878218      46.878218      46.878218      1.1899367     -848.28791     -1184.8394     -1061.371     
    499800   499800         299.59955      208.71305      25819.017      25505.436      6867.2518      18638.184      3059.5748      5886.3637      5225.1767      444.98871     -1280.2741      15709.247     -10406.893     -780.30941      103020.69      46.87862       46.87862       46.87862       1.1899061      1063.5522     -669.23221      231.81917    
    499900   499900         293.74341     -1117.8378      23707.826      25388.296      6733.0207      18655.276      3022.5474      5882.5028      5350.3515      448.09816     -1348.5628      15706.151     -10405.813     -779.85726      103080.42      46.887678      46.887678      46.887678      1.1892166     -1258.3952     -1153.4956     -941.62245    
    500000   500000         298.52154     -390.90258      24771.718      25359.425      6842.5423      18516.883      2975.0489      5772.3892      5309.7388      429.95276     -1277.97        15713.299     -10405.576     -779.78486      103089.99      46.889129      46.889129      46.889129      1.1891062     -388.68769      314.23167     -1098.2517    
Loop time of 2357.92 on 1 procs for 500000 steps with 8720 atoms

Performance: 18.321 ns/day, 1.310 hours/ns, 212.051 timesteps/s, 1.849 Matom-step/s
99.9% CPU use with 1 MPI tasks x 1 OpenMP threads

MPI task timing breakdown:
Section |  min time  |  avg time  |  max time  |%varavg| %total
---------------------------------------------------------------
Pair    | 1083.9     | 1083.9     | 1083.9     |   0.0 | 45.97
Bond    | 339.63     | 339.63     | 339.63     |   0.0 | 14.40
Kspace  | 493.48     | 493.48     | 493.48     |   0.0 | 20.93
Neigh   | 78.695     | 78.695     | 78.695     |   0.0 |  3.34
Comm    | 13.206     | 13.206     | 13.206     |   0.0 |  0.56
Output  | 10.761     | 10.761     | 10.761     |   0.0 |  0.46
Modify  | 252.89     | 252.89     | 252.89     |   0.0 | 10.73
Other   |            | 85.37      |            |       |  3.62

Nlocal:           8720 ave        8720 max        8720 min
Histogram: 1 0 0 0 0 0 0 0 0 0
Nghost:          20060 ave       20060 max       20060 min
Histogram: 1 0 0 0 0 0 0 0 0 0
Neighs:              0 ave           0 max           0 min
Histogram: 1 0 0 0 0 0 0 0 0 0
FullNghs:  4.69432e+06 ave 4.69432e+06 max 4.69432e+06 min
Histogram: 1 0 0 0 0 0 0 0 0 0

Total # of neighbors = 4694316
Ave neighs/atom = 538.33899
Ave special neighs/atom = 5.6385321
Neighbor list builds = 12100
Dangerous builds = 0

# --- Cleanup ---
unfix npt_fix
unfix shake_fix
undump dump_npt

# --- Write Output ---
write_dump all custom /home/arz2/PolyJarvis/data/PEEK3/lammps/mechanical/bm_series/bm_P-500/bm_P-500_last.dump id type mol x y z xu yu zu vx vy vz modify sort id
write_data /home/arz2/PolyJarvis/data/PEEK3/lammps/mechanical/bm_series/bm_P-500/bm_P-500_out.data
System init for write_data ...
PPPM Kokkos initialization ...
  using 12-bit tables for long-range coulomb
  G vector (1/distance) = 0.30684645
  grid = 36 36 36
  stencil order = 5
  estimated absolute RMS force accuracy = 0.0003791692
  estimated relative force accuracy = 1.1418568e-06
  using double precision cuFFT
  3d grid and FFT values/proc = 79507 46656
Generated 21 of 21 mixed pair_coeff terms from sixthpower/sixthpower mixing rule

print "STAGE COMPLETE: NPT T=300.0->300.0K P=-500.0->-500.0atm steps=500000"
STAGE COMPLETE: NPT T=300.0->300.0K P=-500.0->-500.0atm steps=500000
quit
