units real
atom_style full
boundary p p p

# --- Force Field Styles ---
pair_style lj/cut 14.0
dielectric 1.000000
bond_style harmonic
angle_style harmonic
dihedral_style multi/harmonic
improper_style none
special_bonds lj 0 0 0
pair_modify mix arithmetic tail yes
neighbor 2.0 bin
neigh_modify delay 0 every 1 check yes
neigh_modify one 4000
package gpu 1 neigh yes

read_data /home/alexzhao/PolyJarvis/data/PE4/lammps/equil/npt_cool_melt/npt_cool_melt_out.data
Reading data file ...
  orthogonal box = (0.88124721 0.88124721 0.88124721) to (54.897125 54.897125 54.897125)
  1 by 1 by 1 MPI processor grid
  reading atoms ...
  4840 atoms
  reading velocities ...
  4840 velocities
  scanning bonds ...
  2 = max bonds/atom
  scanning angles ...
  1 = max angles/atom
  scanning dihedrals ...
  2 = max dihedrals/atom
  orthogonal box = (0.88124721 0.88124721 0.88124721) to (54.897125 54.897125 54.897125)
  1 by 1 by 1 MPI processor grid
  reading bonds ...
  4820 bonds
  reading angles ...
  4800 angles
  reading dihedrals ...
  4780 dihedrals
Finding 1-2 1-3 1-4 neighbors ...
  special bond factors lj:    0        0        0       
  special bond factors coul:  0        0        0       
     2 = max # of 1-2 neighbors
     2 = max # of 1-3 neighbors
     4 = max # of 1-4 neighbors
     6 = max # of special neighbors
  special bonds CPU = 0.002 seconds
  read_data CPU = 0.071 seconds
include /home/alexzhao/PolyJarvis/data/PE4/lammps/equil/emc_build.params
# LAMMPS parameters created by EMC v9.4.4, build Jul 31 2025 20:33:44

# Variables

variable	seed		index	942725
variable	ntotal		index	4840
variable	fshape		index	1
variable	output		index	emc_build
variable	field		index	trappe/2014/trappe-ua
variable	location1	index	~/emc/field/
variable	nav		index	0.6022141179
variable	temperature	index	300
variable	radius		index	5
variable	nrelax		index	100
variable	weight_nonbond	index	0.0001
variable	weight_bond	index	0.0001
variable	weight_focus	index	1
variable	cutoff		index	14
variable	charge_cutoff	index	14
variable	kappa		index	4
variable	density1	index	0.65
variable	lprevious	index	0
variable	lphase		index	55.7783720511
variable	f_poly		index	20
variable	chem_repeat	index	*CC*
variable	chem_cap	index	*C
variable	lg_repeat	index	2
variable	lg_cap		index	1
variable	norm_poly	index	100
variable	l_poly		index	242
variable	mg_repeat	index	28.0536
variable	mg_cap		index	15.0347
variable	m_poly		index	3396.5014
variable	n_poly		index	20
variable	mtotal		index	67930.028
variable	nphase1		index	4840
variable	mphase1		index	67930.028
variable	vphase1		index	173539.165354
variable	lbox		index	55.7783720511
variable	lphase1		index	55.7783720511
variable	lxx		index	55.7783720511
variable	lyy		index	55.7783720511
variable	lzz		index	55.7783720511
variable	lzy		index	0
variable	lzx		index	0
variable	lyx		index	0
variable	vtotal		index	173539.165354
variable	nl_poly		index	20

# Types

variable	type_c4h2	index	1
variable	type_c4h3	index	2

variable	type_bond_c4h2_c4h2 index	1
variable	type_bond_c4h2_c4h3 index	2

variable	type_angle_c4h2_c4h2_c4h2 index	1
variable	type_angle_c4h2_c4h2_c4h3 index	2

# Clusters

variable	n0_poly		index	1
variable	n1_poly		index	20
variable	nl_poly		index	20

# Flags

variable	flag_charged	index	0

# Masses

mass		1    14.02680  # c4h2
mass		2    15.03470  # c4h3

# Potentials

pair_modify	mix arithmetic tail yes
special_bonds	lj 0 0 0 coul 0 0 0.5
Finding 1-2 1-3 1-4 neighbors ...
  special bond factors lj:    0        0        0       
  special bond factors coul:  0        0        0.5     
     2 = max # of 1-2 neighbors
     2 = max # of 1-3 neighbors
     4 = max # of 1-4 neighbors
     6 = max # of special neighbors
  special bonds CPU = 0.002 seconds

# Pair Coeffs

pair_coeff	1 1    0.09141    3.95000  # c4h2,c4h2
pair_coeff	2 2    0.19475    3.75000  # c4h3,c4h3

# Bond Coeffs

bond_coeff	1  260.00013    1.54000  # c4h2,c4h2
bond_coeff	2  260.00013    1.54000  # c4h2,c4h3

# Angle Coeffs

angle_coeff	1   62.10020  114.00000  # c4h2,c4h2,c4h2
angle_coeff	2   62.10020  114.00000  # c4h2,c4h2,c4h3

# Dihedral Coeffs

dihedral_coeff	1    2.00702   -4.01203    0.27102    6.29006    0.00000  # c4h2,c4h2,c4h2,c4h2
dihedral_coeff	2    2.00702   -4.01203    0.27102    6.29006    0.00000  # c4h2,c4h2,c4h2,c4h3


# --- Thermo Output ---
thermo_style custom step time temp press enthalpy etotal ke pe ebond eangle edihed eimp evdwl ecoul elong etail vol lx ly lz density pxx pyy pzz
thermo_modify flush yes
thermo 1000

# --- Trajectory ---
dump dump_npt all custom 1000 npt_melt.dump id type mol x y z ix iy iz vx vy vz

# --- Restart Checkpointing ---
restart 10000 npt_1.rst npt_2.rst

# --- Initial Velocities (optional) ---
# Velocities read from data file

# --- SHAKE Constraints ---
# SHAKE disabled (TraPPE-UA united-atom)

# --- NPT Thermostat + Barostat (Nose-Hoover) ---
# T_damp = 100.0 fs  (heat bath coupling)
# P_damp = 1000.0 fs  (pressure bath coupling, ~10x T_damp typical)
# Ramp: T=550.0->550.0K  P=1.0->1.0atm
timestep 2.0
fix npt_fix all npt temp 550.0 550.0 100.0 iso 1.0 1.0 1000.0

run 500000

CITE-CITE-CITE-CITE-CITE-CITE-CITE-CITE-CITE-CITE-CITE-CITE-CITE

Your simulation uses code contributions which should be cited:

- GPU package (short-range, long-range and three-body potentials): doi:10.1016/j.cpc.2010.12.021, doi:10.1016/j.cpc.2011.10.012, doi:10.1016/j.cpc.2013.08.002, doi:10.1016/j.commatsci.2014.10.068, doi:10.1016/j.cpc.2016.10.020, doi:10.3233/APC200086

@Article{Brown11,
 author = {W. M. Brown and P. Wang and S. J. Plimpton and A. N. Tharrington},
 title = {Implementing Molecular Dynamics on Hybrid High Performance Computers---Short Range Forces},
 journal = {Comput.\ Phys.\ Commun.},
 year =    2011,
 volume =  182,
 pages =   {898--911},
 doi =     {10.1016/j.cpc.2010.12.021}
}

@Article{Brown12,
 author = {W. M. Brown and A. Kohlmeyer and S. J. Plimpton and A. N. Tharrington},
 title = {Implementing Molecular Dynamics on Hybrid High Performance Computers - Particle-Particle Particle-Mesh},
 journal = {Comput.\ Phys.\ Commun.},
 year =    2012,
 volume =  183,
 doi =     {10.1016/j.cpc.2011.10.012},
 pages =   {449--459}
}

@Article{Brown13,
 author = {W. M. Brown and Y. Masako},
 title = {Implementing Molecular Dynamics on Hybrid High Performance Computers---Three-Body Potentials},
 journal = {Comput.\ Phys.\ Commun.},
 year =    2013,
 volume =  184,
 pages =   {2785--2793},
 doi =     {10.1016/j.cpc.2013.08.002},
}

@Article{Trung15,
 author = {T. D. Nguyen and S. J. Plimpton},
 title = {Accelerating Dissipative Particle Dynamics Simulations for Soft Matter Systems},
 journal = {Comput.\ Mater.\ Sci.},
 year =    2015,
 doi =     {10.1016/j.commatsci.2014.10.068},
 volume =  100,
 pages =   {173--180}
}

@Article{Trung17,
 author = {T. D. Nguyen},
 title = {{GPU}-Accelerated {T}ersoff Potentials for Massively Parallel
    Molecular Dynamics Simulations},
 journal = {Comput.\ Phys.\ Commun.},
 year =    2017,
 doi =     {10.1016/j.cpc.2016.10.020},
 volume =  212,
 pages =   {113--122}
}

@inproceedings{Nikolskiy19,
 author = {V. Nikolskiy and V. Stegailov},
 title = {{GPU} Acceleration of Four-Site Water Models in {LAMMPS}},
 booktitle = {Proceedings of the International Conference on Parallel
    Computing (ParCo 2019), Prague, Czech Republic},
 doi =     {10.3233/APC200086},
 year =    2019
}

CITE-CITE-CITE-CITE-CITE-CITE-CITE-CITE-CITE-CITE-CITE-CITE-CITE

Generated 1 of 1 mixed pair_coeff terms from arithmetic mixing rule
Per MPI rank memory allocation (min/avg/max) = 14.9 | 14.9 | 14.9 Mbytes
   Step          Time           Temp          Press         Enthalpy        TotEng         KinEng         PotEng         E_bond        E_angle        E_dihed        E_impro         E_vdwl         E_coul         E_long         E_tail         Volume           Lx             Ly             Lz          Density          Pxx            Pyy            Pzz      
         0   0              546.43044      363.31636      14547.829      13712.754      7881.7891      5830.9651      2725.8238      2624.0775      4755.8048      0             -4274.741       0              0             -158.18582      157602.94      54.015878      54.015878      54.015878      0.71572559     322.00903      205.8967       562.04335    
      1000   2000           550.20337     -168.11943      13253.56       13645.395      7936.2104      5709.1848      2726.4184      2671.3831      4550.859       0             -4239.4756      0              0             -155.99916      159812.08      54.26709       54.26709       54.26709       0.70583186    -146.72484     -486.93992      129.30646    
      2000   4000           548.31487     -3.7825219      13472.914      13481.629      7908.9704      5572.6586      2596.0525      2597.2088      4707.4547      0             -4328.0573      0              0             -157.81009      157978.17      54.058712      54.058712      54.058712      0.71402559     431.28075     -210.79227     -231.83605    
      3000   6000           546.66204     -337.214        12947.857      13732.434      7885.1297      5847.3041      2754.2366      2617.4323      4674.3921      0             -4198.7568      0              0             -156.2709       159534.18      54.235616      54.235616      54.235616      0.70706137     34.616414     -745.13685     -301.12156    
      4000   8000           552.11724     -212.64003      13177.67       13676.679      7963.8162      5712.8632      2687.4237      2607.0733      4627.3152      0             -4208.949       0              0             -154.93312      160911.69      54.39127       54.39127       54.39127       0.70100847     386.71194     -103.21737     -921.41465    
      5000   10000          551.52595     -19.071323      13563.563      13607.492      7955.2874      5652.2044      2751.2214      2639.2874      4571.6053      0             -4309.9097      0              0             -157.84797      157940.26      54.054388      54.054388      54.054388      0.71419695     722.78035     -13.213833     -766.78049    
      6000   12000          544.02752     -626.57305      11951.83       13377.583      7847.1291      5530.4539      2702.8823      2580.5061      4586.7253      0             -4339.6598      0              0             -159.78463      156025.95      53.835111      53.835111      53.835111      0.72295958    -397.78157     -355.89707     -1126.0405    
      7000   14000          562.73154      711.85478      15471.856      13831.061      8116.9184      5714.1424      2765.4748      2531.7864      4691.2243      0             -4274.3431      0              0             -157.74109      158047.28      54.066593      54.066593      54.066593      0.71371337     867.97874      537.857        729.72859    
      8000   16000          545.44821     -226.91291      12992.921      13519.109      7867.6212      5651.4873      2740.5153      2596.2602      4642.6113      0             -4327.8995      0              0             -156.79282      159003.13      54.175371      54.175371      54.175371      0.70942284    -347.87778      140.10784     -472.96878    
      9000   18000          545.77656     -24.169415      13526.747      13581.858      7872.3574      5709.5005      2736.7094      2698.3439      4636.9798      0             -4362.5326      0              0             -159.45431      156349.17      53.87226       53.87226       53.87226       0.721465      -1.3892253     -56.866139     -14.252882    
     10000   20000          545.52276     -721.53125      11954.029      13600.976      7868.6965      5732.2798      2745.6665      2599.8219      4668.9859      0             -4282.1945      0              0             -159.28799      156512.42      53.891003      53.891003      53.891003      0.72071249    -1399.2326     -606.10336     -159.25782    
     11000   22000          547.7222      -387.27029      12635.002      13525.402      7900.4216      5624.9801      2671.0023      2601.5192      4663.5863      0             -4311.1277      0              0             -158.13823      157650.37      54.021296      54.021296      54.021296      0.71551026    -901.23515     -703.073        442.49726    
     12000   24000          551.3097      -1.7970304      13653.05       13657.219      7952.1682      5705.0503      2678.1075      2518.6478      4748.9475      0             -4240.6524      0              0             -156.7568       159039.67      54.17952       54.17952       54.17952       0.70925987    -43.697196      95.177141     -56.871036    
     13000   26000          549.56612      81.814125      13992.88       13804.852      7927.0186      5877.8337      2726.1268      2645.19        4779.2587      0             -4272.7418      0              0             -158.20312      157585.7       54.013908      54.013908      54.013908      0.71580389     1043.7897     -275.63229     -522.71506    
     14000   28000          547.13226     -609.07291      12218.758      13612.125      7891.9122      5720.2127      2695.1412      2656.5154      4658.989       0             -4290.4328      0              0             -158.93207      156862.93      53.931203      53.931203      53.931203      0.71910206    -1196.4438     -133.07948     -497.69544    
     15000   30000          539.3798      -165.89179      13031.908      13411.608      7780.0897      5631.5188      2661.1115      2601.205       4704.7854      0             -4335.5831      0              0             -158.85151      156942.48      53.940318      53.940318      53.940318      0.71873756     72.998523     -805.84979      235.1759     
     16000   32000          539.08962      179.06922      13787.444      13378.58       7775.9041      5602.6763      2692.6974      2619.6613      4628.3698      0             -4338.0521      0              0             -159.2393       156560.28      53.896496      53.896496      53.896496      0.72049217    -182.22307      529.80951      189.62123    
     17000   34000          563.85494      56.570094      13990.939      13860.772      8133.1224      5727.6496      2679.9587      2734.0234      4625.2423      0             -4311.5747      0              0             -158.01321      157775.09      54.035538      54.035538      54.035538      0.71494463     266.14031     -148.05841      51.628375    
     18000   36000          547.89177      455.1628       14488.926      13443.864      7902.8676      5540.9963      2706.6884      2610.9867      4603.3464      0             -4380.0251      0              0             -158.35516      157434.4       53.996617      53.996617      53.996617      0.71649178     312.94282     -123.36428      1175.9099    
     19000   38000          542.83026     -153.27048      13216.655      13579.453      7829.8596      5749.593       2667.4442      2646.7537      4592.0045      0             -4156.6094      0              0             -153.60388      162304.16      54.547713      54.547713      54.547713      0.69499423     492.53954     -393.70443     -558.64655    
     20000   40000          550.6386      -316.44691      12975.687      13718.831      7942.4882      5776.3424      2654.7495      2642.3918      4691.3395      0             -4212.1383      0              0             -154.82309      161026.04      54.404151      54.404151      54.404151      0.70051065     260.7941      -807.89316     -402.24167    
     21000   42000          549.08142      250.28462      14258.76       13666.125      7920.0271      5746.0982      2697.4014      2619.3176      4596.908       0             -4167.5289      0              0             -153.55167      162359.35      54.553896      54.553896      54.553896      0.69475797     888.54787      343.98409     -481.67809    
     22000   44000          542.72842      385.17322      14503.264      13604.584      7828.3907      5776.1929      2715.3721      2600.7463      4659.7625      0             -4199.6878      0              0             -155.8327       159982.79      54.286405      54.286405      54.286405      0.7050787      271.17443      429.23924      455.10598    
     23000   46000          555.27329      3.6044857      13894.957      13886.72       8009.3396      5877.3805      2737.4351      2747.4336      4673.4385      0             -4280.9267      0              0             -159.10572      156691.72      53.911575      53.911575      53.911575      0.71988778    -876.07714      84.92584       801.96476    
     24000   48000          550.66053      317.14241      14370.543      13638.205      7942.8044      5695.4001      2705.2933      2609.9755      4667.9823      0             -4287.851       0              0             -157.45267      158336.78      54.099586      54.099586      54.099586      0.7124084      850.71494     -131.80033      232.51264    
     25000   50000          555.26865      173.34261      13848.191      13450.321      8009.2726      5441.0488      2616.3094      2606.7178      4602.1167      0             -4384.0952      0              0             -158.40624      157383.63      53.990811      53.990811      53.990811      0.71672293    -386.24343      671.12543      235.14582    
     26000   52000          551.46409      93.162912      13841.664      13624.454      7954.3952      5670.0592      2628.26        2656.4726      4610.2178      0             -4224.8913      0              0             -155.9449       159867.68      54.273382      54.273382      54.273382      0.70558638     906.56067     -362.96276     -264.10918    
     27000   54000          549.99732     -751.03896      11755.364      13483.01       7933.2382      5549.772       2628.6329      2663.6112      4609.1468      0             -4351.6188      0              0             -158.05756      157730.82      54.030484      54.030484      54.030484      0.71514529    -548.1687      -775.46757     -929.4806     
     28000   56000          547.69801      762.84935      15324.256      13578.281      7900.0727      5678.2087      2691.7385      2729.7368      4600.6265      0             -4343.8932      0              0             -158.85782      156936.24      53.939603      53.939603      53.939603      0.71876614     1032.3017      452.5495       803.69686    
     29000   58000          549.60349     -301.66535      12856.302      13558.632      7927.5575      5631.074       2697.2536      2592.6239      4568.8601      0             -4227.6636      0              0             -156.16796      159639.34      54.24753       54.24753       54.24753       0.70659562    -570.98868     -555.73107      221.7237     
     30000   60000          545.91087     -355.35043      12676.596      13496.126      7874.2947      5621.8311      2697.5913      2559.8553      4638.7973      0             -4274.4128      0              0             -157.65208      158136.51      54.076766      54.076766      54.076766      0.71331065    -67.793954     -501.26478     -496.99255    
     31000   62000          549.15824     -154.63777      13214.304      13571.304      7921.1352      5650.1692      2664.6508      2638.224       4615.4198      0             -4268.1254      0              0             -157.49047      158298.78      54.095257      54.095257      54.095257      0.71257943     309.47896     -968.54257      195.15029    
     32000   64000          542.32217     -472.89914      12292.694      13384.54       7822.5308      5562.009       2650.5984      2530.6788      4654.7436      0             -4274.0118      0              0             -157.47615      158313.18      54.096897      54.096897      54.096897      0.71251462     363.08007     -960.15597     -821.62153    
     33000   66000          553.68721      44.41712       13651.62       13550.041      7986.4617      5563.579       2709.8968      2635.7591      4527.7901      0             -4309.8671      0              0             -158.98322      156812.46      53.925418      53.925418      53.925418      0.71933352     801.59402     -201.26397     -467.0787     
     34000   68000          547.36858     -676.69703      11936.31       13471.213      7895.3209      5575.8924      2648.0921      2691.4094      4593.7731      0             -4357.3821      0              0             -160.29535      155528.83      53.777875      53.777875      53.777875      0.72527037    -797.48161     -327.87831     -904.73116    
     35000   70000          555.26087      221.26767      14137.583      13636.198      8009.1604      5627.0375      2648.0862      2635.0557      4686.203       0             -4342.3075      0              0             -160.45526      155373.84      53.760004      53.760004      53.760004      0.72599389     334.80986      146.98868      182.00446    
     36000   72000          561.36507     -330.04765      12955.851      13711.571      8097.2083      5614.3629      2659.0524      2670.9835      4631.1746      0             -4346.8475      0              0             -158.7901       157003.17      53.947271      53.947271      53.947271      0.71845971    -967.17843     -428.36361      405.39909    
     37000   74000          558.76558      115.49392      14079.668      13813.161      8059.7129      5753.4477      2680.3909      2733.0727      4614.4578      0             -4274.4737      0              0             -157.56451      158224.4       54.086783      54.086783      54.086783      0.71291444     220.41116     -457.71059      583.7812     
     38000   76000          546.61804      510.17117      14613.255      13427.931      7884.495       5543.4357      2619.9594      2671.7418      4533.2986      0             -4281.5641      0              0             -156.48996      159310.85      54.210297      54.210297      54.210297      0.70805255     36.10796       956.25282      538.15273    
     39000   78000          552.69441     -98.496023      13520.609      13745.406      7972.1414      5773.2647      2770.5617      2643.9892      4651.9504      0             -4293.2365      0              0             -159.30697      156493.78      53.888863      53.888863      53.888863      0.72079835     600.67131     -371.26004     -524.89934    
     40000   80000          552.47192      303.47857      14249.659      13552.787      7968.9322      5583.8543      2705.4768      2641.7163      4545.8205      0             -4309.1593      0              0             -158.33701      157452.44      53.998679      53.998679      53.998679      0.71640969     231.18351      346.45493      332.79728    
     41000   82000          559.6451      -12.464639      13631.563      13659.954      8072.3992      5587.5553      2614.6008      2739.2746      4567.0732      0             -4333.3932      0              0             -159.62259      156184.34      53.853322      53.853322      53.853322      0.72222641    -353.82662      262.12987      54.302833    
     42000   84000          545.22592     -482.1806       12564.407      13657.56       7864.4149      5793.1451      2710.3435      2698.6645      4731.0622      0             -4346.9252      0              0             -160.3749       155451.69      53.768982      53.768982      53.768982      0.7256303     -201.17359     -560.46509     -684.90311    
     43000   86000          548.17333     -444.25619      12641.025      13660.594      7906.9288      5753.6649      2709.5356      2692.8107      4623.8254      0             -4272.5068      0              0             -158.42539      157364.61      53.988636      53.988636      53.988636      0.71680955     197.89486     -249.30765     -1281.3558    
     44000   88000          536.75967      100.511        13591.302      13358.412      7742.2966      5616.115       2549.5782      2637.6745      4701.4924      0             -4272.6301      0              0             -156.91705      158877.25      54.16107       54.16107       54.16107       0.70998496    -78.181818     -366.2223       745.93711    
     45000   90000          548.73064      258.18611      14253.519      13661.305      7914.9675      5746.3377      2728.873       2641.9707      4668.1453      0             -4292.6513      0              0             -158.51203      157278.6       53.978798      53.978798      53.978798      0.71720156     168.22119     -137.17263      743.50976    
     46000   92000          540.71889     -536.2677       12147.352      13360.363      7799.4049      5560.9577      2625.474       2629.9369      4675.4366      0             -4369.8897      0              0             -160.74029      155098.32      53.728209      53.728209      53.728209      0.72728353    -874.60205     -379.65458     -354.54647    
     47000   94000          546.30987      216.68746      14374.941      13872.24       7880.0499      5992.1901      2731.7021      2786.0709      4685.6228      0             -4211.2057      0              0             -156.72281      159074.16      54.183437      54.183437      54.183437      0.70910609    -57.21749       499.85424      207.42563    
     48000   96000          546.57729     -78.465223      13381.713      13564.199      7883.9073      5680.2914      2679.2519      2687.7538      4600.0367      0             -4286.751       0              0             -156.33495      159468.82      54.228209      54.228209      54.228209      0.70735116    -27.4141       -583.58782      375.60625    
     49000   98000          543.71344     -828.36445      11652.099      13578.658      7842.5986      5736.059       2647.1259      2649.8663      4671.7189      0             -4232.6521      0              0             -156.33167      159472.16      54.228587      54.228587      54.228587      0.70733636    -262.13735     -633.9551      -1589.0009    
     50000   100000         559.19182     -418.60513      12663.824      13621.479      8065.8609      5555.6181      2717.1728      2532.3243      4666.6313      0             -4360.5103      0              0             -158.92899      156865.97      53.931551      53.931551      53.931551      0.71908814    -1016.2714     -460.10288      220.55893    
     51000   102000         544.10981     -284.45559      12840.169      13498.104      7848.3159      5649.788       2742.2662      2560.1423      4583.4693      0             -4236.0899      0              0             -157.1951       158596.22      54.129117      54.129117      54.129117      0.71124301    -696.01701      667.38804     -824.7378     
     52000   104000         547.44512      506.58073      14734.964      13571.038      7896.4249      5674.6131      2662.1679      2627.92        4675.7198      0             -4291.1946      0              0             -158.24542      157543.58      54.009096      54.009096      54.009096      0.71599525     794.04241      159.01097      566.68881    
     53000   106000         541.37798      408.06453      14518.865      13567.884      7808.9117      5758.9718      2714.9565      2660.3587      4642.4867      0             -4258.8301      0              0             -156.01427      159796.59      54.265337      54.265337      54.265337      0.70590025     606.86559     -88.527696      705.8557     
     54000   108000         558.90048      354.55003      14468.293      13647.051      8061.6587      5585.3922      2574.0908      2589.0307      4664.7494      0             -4242.4788      0              0             -156.96901      158824.66      54.155093      54.155093      54.155093      0.71022005     417.88754     -120.04197      765.80451    
     55000   110000         556.22774     -192.97692      13033.334      13478.409      8023.1067      5455.3018      2549.7733      2582.2999      4663.7912      0             -4340.5627      0              0             -157.64522      158143.39      54.077551      54.077551      54.077551      0.7132796     -373.99178     -699.26874      494.32976    
     56000   112000         545.02828      346.10265      14296.528      13504.934      7861.5641      5643.3697      2622.0662      2637.615       4701.0248      0             -4317.3363      0              0             -158.96811      156827.37      53.927127      53.927127      53.927127      0.71926512    -298.24064      518.58246      817.96614    
     57000   114000         555.76362     -150.63922      13242.583      13592.689      8016.4122      5576.2771      2611.804       2579.7707      4642.6858      0             -4257.9834      0              0             -156.43921      159362.54      54.216159      54.216159      54.216159      0.70782291    -468.12285     -130.44197      146.64715    
     58000   116000         553.45399     -833.10005      11553.998      13464.915      7983.0978      5481.8169      2599.4321      2544.6531      4675.8505      0             -4338.1189      0              0             -158.51234      157278.28      53.978762      53.978762      53.978762      0.71720299    -116.44365     -512.50255     -1870.354     
     59000   118000         550.78651      476.19301      14796.699      13704.232      7944.6216      5759.6108      2697.2026      2699.7766      4658.3498      0             -4295.7182      0              0             -158.48293      157307.47      53.982101      53.982101      53.982101      0.71706991     826.74704      509.94352      91.888456    
     60000   120000         545.37089     -5.1352281      13373.475      13385.101      7866.506       5518.5948      2629.8341      2701.2638      4539.1286      0             -4351.6318      0              0             -160.59891      155234.86      53.743971      53.743971      53.743971      0.72664383     18.312243      585.46707     -619.185      
     61000   122000         556.20099      129.67682      13999.674      13701.972      8022.7209      5679.2515      2734.3285      2620.4228      4634.6113      0             -4310.1111      0              0             -158.37584      157413.84      53.994266      53.994266      53.994266      0.71658537     811.79051     -383.25419     -39.505858    
     62000   124000         547.86506     -103.96832      13127.442      13365.178      7902.4822      5462.6956      2572.0254      2668.4523      4605.0936      0             -4382.8757      0              0             -159.00644      156789.56      53.922793      53.922793      53.922793      0.71943857     1038.9858     -1206.9544     -143.93635    
     63000   126000         543.20162      209.60393      14011.83       13530.893      7835.2162      5695.6766      2695.6907      2764.4514      4537.8013      0             -4302.2668      0              0             -158.4596       157330.64      53.984751      53.984751      53.984751      0.71696434     434.70437     -67.270708      261.37814    
     64000   128000         553.10348      279.22636      14127.078      13488.853      7978.0419      5510.811       2606.1413      2657.9898      4599.7379      0             -4353.058       0              0             -159.07062      156726.3       53.91554       53.91554       53.91554       0.71972895     272.89129     -53.475689      618.26348    
     65000   130000         547.12459      267.57724      14208.144      13609.114      7891.8016      5717.3123      2704.0775      2728.1275      4664.7726      0             -4379.6654      0              0             -162.40819      153505.49      53.54365       53.54365       53.54365       0.73483009     702.77566      293.16732     -193.21126    
     66000   132000         543.8868      -57.044636      13414.719      13545.667      7845.0992      5700.568       2670.2873      2677.4291      4642.3441      0             -4289.4925      0              0             -158.38772      157402.03      53.992916      53.992916      53.992916      0.71663912     38.236227      91.099224     -300.46936    
     67000   134000         545.86592     -155.17861      13110.666      13463.647      7873.6463      5590.0012      2651.8173      2648.2937      4605.3365      0             -4315.4464      0              0             -159.84099      155970.94      53.828784      53.828784      53.828784      0.72321455    -258.3771       92.157736     -299.31647    
     68000   136000         551.88628      514.57552      14907.369      13725.086      7960.4848      5764.6009      2684.9201      2661.1218      4731.25        0             -4312.6911      0              0             -158.24694      157542.06      54.008922      54.008922      54.008922      0.71600215     780.64662      219.18124      543.89869    
     69000   138000         549.78137      177.23967      13848.245      13436.997      7930.1234      5506.8736      2614.9371      2496.4779      4640.4263      0             -4244.9676      0              0             -156.69859      159098.74      54.186228      54.186228      54.186228      0.70899651     341.96961      236.26355     -46.51415     
     70000   140000         556.10428     -262.83495      13066.049      13678.473      8021.3259      5657.1472      2632.6782      2666.5086      4600.5333      0             -4242.5729      0              0             -156.0409       159769.33      54.262251      54.262251      54.262251      0.7060207     -364.29604     -210.30834     -213.90048    
     71000   142000         539.41044      485.09767      14394.727      13275.826      7780.5316      5495.2941      2626.2378      2563.534       4632.8742      0             -4327.352       0              0             -157.63234      158156.31      54.079024      54.079024      54.079024      0.71322133    -131.67482      1117.1167      469.85112    
     72000   144000         550.76924      384.55737      14586.395      13693.435      7944.3725      5749.0624      2634.5373      2715.8129      4677.6417      0             -4278.9295      0              0             -156.58023      159219.02      54.199878      54.199878      54.199878      0.70846095     385.35137      255.74926      512.57147    
     73000   146000         551.24389      11.490469      13641.084      13614.852      7951.219       5663.6329      2632.3842      2747.2282      4619.1493      0             -4335.1287      0              0             -159.26309      156536.9       53.893813      53.893813      53.893813      0.72059978     356.07208      23.613074     -345.21375    
     74000   148000         545.56262     -289.09963      13009.074      13661.426      7869.2715      5792.1548      2699.8528      2748.5103      4712.7811      0             -4368.9895      0              0             -161.12867      154724.47      53.685006      53.685006      53.685006      0.72904081     78.082525     -299.57353     -645.8079     
     75000   150000         549.97064     -49.949019      13558.804      13672.786      7932.8534      5739.9322      2638.4814      2707.7418      4748.2866      0             -4354.5776      0              0             -159.33075      156470.42      53.886182      53.886182      53.886182      0.72090594    -130.80002     -190.02478      170.97774    
     76000   152000         540.10044     -236.49761      12776.583      13325.582      7790.4843      5535.0978      2583.5044      2587.1733      4631.1684      0             -4266.7482      0              0             -156.62554      159172.96      54.194651      54.194651      54.194651      0.70866596    -116.22218     -57.339454     -535.9312     
     77000   154000         563.75953      198.43034      14328.012      13873.854      8131.7463      5742.1076      2715.605       2663.503       4635.0085      0             -4272.0089      0              0             -158.85804      156936.03      53.939579      53.939579      53.939579      0.71876712     327.76328      219.13073      48.397012    
     78000   156000         554.37107     -571.44751      12503.157      13835.32       7996.3258      5838.9945      2705.1489      2688.1652      4652.5773      0             -4206.8969      0              0             -155.96476      159847.32      54.271079      54.271079      54.271079      0.70567623    -541.98271     -103.54411     -1068.8157    
     79000   158000         551.06974      82.683503      13760.652      13569.661      7948.707       5620.9543      2710.2988      2625.3521      4623.1862      0             -4337.8828      0              0             -157.40344      158386.31      54.105225      54.105225      54.105225      0.71218566     474.9985      -1133.2965      906.34852    
     80000   160000         561.88964      536.20018      15123.465      13900.049      8104.7747      5795.2744      2706.7264      2701.5756      4724.6285      0             -4337.6561      0              0             -159.35314      156448.43      53.883658      53.883658      53.883658      0.72100725     711.55984      411.47449      485.56622    
     81000   162000         543.04305      332.67578      14084.54       13321.644      7832.9289      5488.7151      2652.4893      2576.6275      4585.3969      0             -4325.7986      0              0             -158.549        157241.92      53.974602      53.974602      53.974602      0.71736884     595.83837     -272.22963      674.41861    
     82000   164000         554.12112      38.552524      13866.504      13777.297      7992.7205      5784.5769      2715.8543      2682.0113      4680.4491      0             -4293.7378      0              0             -157.13223      158659.68      54.136336      54.136336      54.136336      0.71095854     426.84142      70.729091     -381.91294    
     83000   166000         554.64519     -801.74192      11539.464      13330.867      8000.2797      5330.5877      2645.733       2582.8666      4565.5628      0             -4463.5747      0              0             -162.72299      153208.52      53.5091        53.5091        53.5091        0.73625444     203.5279      -1632.628      -976.12563    
     84000   168000         558.03048      213.08029      14052.943      13568.58       8049.1096      5519.4706      2606.4789      2583.4641      4685.147       0             -4355.6194      0              0             -159.94857      155866.03      53.816712      53.816712      53.816712      0.72370134     714.21971     -157.5538       82.574972    
     85000   170000         543.76536     -185.14024      13033.078      13460.043      7843.3476      5616.6956      2673.7647      2697.2277      4558.9386      0             -4313.2354      0              0             -157.65808      158130.49      54.076081      54.076081      54.076081      0.71333779    -181.29738     -519.85053      145.72717    
     86000   172000         562.10994      231.62947      14009.278      13481.386      8107.9523      5373.4341      2651.7094      2544.839       4582.4638      0             -4405.5781      0              0             -159.53531      156269.79      53.863141      53.863141      53.863141      0.72183149     282.2013       505.34005     -92.652945    
     87000   174000         556.54902      383.7826       14627.367      13743.58       8027.741       5715.839       2806.0115      2580.2636      4623.1536      0             -4293.5897      0              0             -157.88669      157901.53      54.049969      54.049969      54.049969      0.71437215     492.22002      852.237       -193.10923    
     88000   176000         560.87001     -84.149051      13458.365      13649.023      8090.0674      5558.9556      2636.8293      2700.3001      4608.0181      0             -4386.1919      0              0             -160.47337      155356.3       53.757982      53.757982      53.757982      0.72607584    -79.314804     -197.26408      24.131731    
     89000   178000         541.66916      483.03007      14493.202      13379.199      7813.1117      5566.087       2643.4023      2647.3414      4598.5342      0             -4323.191       0              0             -157.65055      158138.04      54.076941      54.076941      54.076941      0.71330374     280.00776      95.497269      1073.5852    
     90000   180000         546.47741     -322.65636      12831.607      13585.864      7882.4666      5703.3975      2637.4648      2637.5262      4675.77        0             -4247.3634      0              0             -155.53515      160288.84      54.321001      54.321001      54.321001      0.70373242    -305.72078     -332.77105     -329.47726    
     91000   182000         543.97614      250.70161      14281.602      13700.928      7846.3879      5854.5402      2720.7066      2624.1014      4752.9394      0             -4243.2072      0              0             -156.97571      158817.88      54.154323      54.154323      54.154323      0.71025034     1022.6353      603.51935     -874.04984    
     92000   184000         548.98646     -233.375        13230.882      13775.91       7918.6575      5857.2522      2608.9107      2715.5482      4709.8496      0             -4177.0563      0              0             -155.68371      160135.89      54.303718      54.303718      54.303718      0.70440457     50.285088     -477.42874     -272.98136    
     93000   186000         548.34782     -788.06556      11849.968      13676.183      7909.4457      5766.7376      2709.5075      2741.6089      4590.7761      0             -4275.1549      0              0             -156.89828      158896.26      54.163231      54.163231      54.163231      0.7099        -1237.0392     -419.62081     -707.5367     
     94000   188000         561.00878      223.04577      14095.706      13585.992      8092.0691      5493.9225      2608.3278      2501.0366      4677.8378      0             -4293.2798      0              0             -159.10168      156695.7       53.912031      53.912031      53.912031      0.71986948     791.78459     -165.35823      42.710953    
     95000   190000         556.63771     -418.27123      12715.22       13678.273      8029.0202      5649.2524      2716.8941      2606.1459      4626.1195      0             -4299.907       0              0             -157.91227      157875.95      54.04705       54.04705       54.04705       0.71448791    -447.35628     -859.13928      51.681878    
     96000   192000         555.52802      59.367681      13857.814      13719.489      8013.0138      5706.4749      2613.2269      2692.5986      4630.2589      0             -4229.6095      0              0             -156.04788      159762.18      54.261442      54.261442      54.261442      0.70605229     286.01956     -702.97884      595.06232    
     97000   194000         551.29582      387.48099      14566.017      13686.112      7951.968       5734.1437      2663.2179      2677.5747      4702.6843      0             -4309.3332      0              0             -160.11143      155707.49      53.798459      53.798459      53.798459      0.72443821     1045.1985     -264.54619      381.79063    
     98000   196000         554.33093      619.54441      15282.813      13832.137      7995.7469      5836.3901      2739.6827      2616.855       4652.4697      0             -4172.6173      0              0             -155.27796      160554.33      54.350976      54.350976      54.350976      0.70256873     1388.4425      930.06539     -459.87465    
     99000   198000         573.80867      638.09897      15363.086      13898.354      8276.6965      5621.6578      2731.3272      2598.5962      4633.3619      0             -4341.6275      0              0             -158.39365      157396.14      53.992242      53.992242      53.992242      0.71666594     561.02868      850.94065      502.32759    
    100000   200000         550.51691      81.521343      13905.775      13718.584      7940.7329      5777.851       2641.0245      2643.3113      4760.3019      0             -4266.7866      0              0             -158.3413       157448.18      53.998192      53.998192      53.998192      0.71642907    -661.09966      806.24205      99.421646    
    101000   202000         537.09789      25.069769      13507.014      13449.34       7747.175       5702.1649      2722.6467      2592.5675      4696.1705      0             -4309.2199      0              0             -158.04255      157745.81      54.032194      54.032194      54.032194      0.71507737    -247.59997      601.52185     -278.71257    
    102000   204000         557.00238      11.520627      13814.781      13787.506      8034.2802      5753.2256      2629.1935      2682.7495      4640.9094      0             -4199.6268      0              0             -153.57331      162336.47      54.551333      54.551333      54.551333      0.6948559     -67.003672      332.93897     -231.37342    
    103000   206000         553.2127       702.18627      15239.909      13592.249      7979.6173      5612.6317      2592.6678      2584.2031      4653.1148      0             -4217.3542      0              0             -154.95031      160893.83      54.389258      54.389258      54.389258      0.70108626     314.01365      312.59661      1479.9486    
    104000   208000         549.66868     -396.08071      12682.317      13589.737      7928.4979      5661.2391      2610.48        2575.7382      4771.7019      0             -4296.681       0              0             -158.70227      157090.06      53.957221      53.957221      53.957221      0.71806233     231.03542     -410.02177     -1009.2558    
    105000   210000         555.07275      252.65435      14286.52       13702.476      8006.4469      5696.0294      2647.0953      2651.1453      4651.718       0             -4253.9292      0              0             -157.28562      158504.95      54.118731      54.118731      54.118731      0.71165258    -667.27713      957.17552      468.06465    
    106000   212000         558.95584     -214.71632      13403.405      13901.053      8062.4572      5838.5961      2699.9812      2696.3938      4709.1065      0             -4266.8854      0              0             -156.87363      158921.23      54.166067      54.166067      54.166067      0.70978848    -198.00831     -791.95605      345.81541    
    107000   214000         550.70516     -205.50405      13186.172      13660.819      7943.4482      5717.3708      2677.0069      2599.1467      4694.3832      0             -4253.166       0              0             -157.41921      158370.44      54.103419      54.103419      54.103419      0.71225699    -753.59349     -157.30083      294.38216    
    108000   216000         560.58381      132.30657      14248.011      13939.27       8085.9393      5853.3305      2736.7933      2649.2515      4682.7055      0             -4215.4198      0              0             -155.80995      160006.14      54.289047      54.289047      54.289047      0.70497577     369.15685     -182.90432      210.66718    
    109000   218000         547.99203      22.640224      13780.982      13728.559      7904.3137      5824.2449      2673.8622      2722.3255      4697.5282      0             -4269.471       0              0             -157.02266      158770.4       54.148925      54.148925      54.148925      0.71046277     914.40698     -400.48268     -446.00362    
    110000   220000         541.22959     -292.22973      12760.694      13439.701      7806.7712      5632.9297      2581.6353      2675.5589      4602.103       0             -4226.3675      0              0             -156.47956      159321.45      54.211499      54.211499      54.211499      0.70800546    -418.01404     -164.90423     -293.77091    
    111000   222000         545.1121      -208.16387      12926.381      13408.501      7862.7731      5545.7283      2657.0344      2545.1465      4599.5518      0             -4256.0044      0              0             -156.9847       158808.79      54.153289      54.153289      54.153289      0.71029102     34.844881      192.20109     -851.53758    
    112000   224000         558.4003       57.682459      14035.804      13901.123      8054.444       5846.6786      2633.8823      2715.0626      4706.0907      0             -4208.357       0              0             -155.71962      160098.96      54.299542      54.299542      54.299542      0.70456708     225.45295     -317.39324      264.98767    
    113000   226000         549.89923      340.52739      14251.594      13472.514      7931.8234      5540.6905      2564.3273      2628.4397      4642.0933      0             -4294.1698      0              0             -158.91969      156875.14      53.932602      53.932602      53.932602      0.71904608     2.3637318      420.46766      598.75079    
    114000   228000         551.12808     -90.592964      13508.869      13719.098      7949.5486      5769.5494      2715.6266      2612.7188      4669.9978      0             -4228.7938      0              0             -156.67835      159119.3       54.188561      54.188561      54.188561      0.70890493     126.30399     -369.87293     -28.20995     
    115000   230000         551.03777     -514.29379      12509.401      13705.615      7948.2459      5757.3688      2672.3676      2731.9582      4606.6332      0             -4253.5901      0              0             -156.31847      159485.63      54.230114      54.230114      54.230114      0.70727663    -545.54172     -456.90053     -540.43911    
    116000   232000         553.36534     -218.81592      13183.34       13682.511      7981.819       5700.6916      2735.2592      2574.5568      4703.3793      0             -4312.5038      0              0             -159.38156      156420.54      53.880455      53.880455      53.880455      0.72113584    -83.852659     -254.5147      -318.08039    
    117000   234000         546.19961     -54.838041      13458.594      13586.822      7878.4596      5708.3629      2716.1718      2611.6774      4629.7461      0             -4249.2324      0              0             -155.49101      160334.35      54.326141      54.326141      54.326141      0.7035327      353.71323     -470.6589      -47.56845     
    118000   236000         555.04286     -70.183248      13607.436      13769.89       8006.0158      5763.8739      2693.6315      2662.7381      4657.1992      0             -4249.6948      0              0             -157.07688      158715.59      54.142694      54.142694      54.142694      0.71070809    -206.73014     -261.08957      257.26997    
    119000   238000         552.42252      563.12721      15074.48       13786.245      7968.2197      5818.0256      2756.7039      2735.8839      4664.1355      0             -4338.6976      0              0             -158.9349       156860.13      53.930883      53.930883      53.930883      0.71911487    -333.62868      604.92556      1418.0847    
    120000   240000         550.20315     -228.93154      13282.843      13811.847      7936.2071      5875.6397      2701.3228      2783.7867      4658.8171      0             -4268.287       0              0             -157.34547      158444.66      54.111869      54.111869      54.111869      0.71192339    -383.53329     -110.88947     -192.37185    
    121000   242000         543.85588     -18.026553      13439.547      13481.02       7844.6533      5636.3665      2626.1819      2711.1702      4598.4588      0             -4299.4445      0              0             -158.03525      157753.09      54.033026      54.033026      54.033026      0.71504436    -221.35129      396.89028     -229.61865    
    122000   244000         550.13764     -280.22804      13080.396      13725.165      7935.2623      5789.9028      2747.0669      2649.3091      4675.2098      0             -4281.683       0              0             -158.02117      157767.15      54.034632      54.034632      54.034632      0.71498061     586.83692     -1146.4203     -281.10075    
    123000   246000         550.85601     -251.15196      13084.49       13675.522      7945.6242      5729.8976      2669.5709      2702.693       4584.9838      0             -4227.3501      0              0             -154.50191      161360.79      54.441824      54.441824      54.441824      0.69905742    -8.9497114     -189.21594     -555.29024    
    124000   248000         544.72546     -566.48312      12242.872      13575.608      7857.1962      5718.4119      2705.3046      2602.1476      4641.9653      0             -4231.0056      0              0             -154.54347      161317.4       54.436944      54.436944      54.436944      0.69924545    -802.59976     -740.22649     -156.62311    
    125000   250000         538.23601      323.69411      14186.932      13435.113      7763.5915      5671.5212      2690.9489      2603.7832      4637.7193      0             -4260.9302      0              0             -156.54138      159258.52      54.204361      54.204361      54.204361      0.70828521     432.79511      253.39659      284.89062    
    126000   252000         545.45458     -21.162911      13577.262      13626.59       7867.7132      5758.8773      2716.5928      2651.6079      4632.569       0             -4241.8924      0              0             -155.98722      159824.31      54.268475      54.268475      54.268475      0.70577783     247.78694     -231.13625     -80.139424    
    127000   254000         561.26867      648.4472       15419.492      13881.396      8095.8178      5785.5786      2614.5772      2661.915       4631.4103      0             -4122.3239      0              0             -153.2848       162642.02      54.585537      54.585537      54.585537      0.69355051     787.73656      690.84733      466.75772    
    128000   256000         553.34031     -764.25812      11992.995      13773.165      7981.4581      5791.7074      2758.0103      2614.9909      4661.6709      0             -4242.9646      0              0             -156.09398      159715         54.256099      54.256099      54.256099      0.70626088    -990.20127     -917.69474     -384.87836    
    129000   258000         552.35982      205.60038      14113.817      13634.929      7967.3153      5667.6137      2711.0092      2685.6622      4537.5678      0             -4266.6255      0              0             -156.098        159710.88      54.255633      54.255633      54.255633      0.70627909     191.06779      502.60373     -76.870379    
    130000   260000         552.84891      379.75889      14700.354      13817.566      7974.37        5843.1964      2694.0338      2668.5276      4710.6967      0             -4230.0617      0              0             -156.40825      159394.09      54.219736      54.219736      54.219736      0.70768282    -449.81103      834.03962      755.04808    
    131000   262000         548.06839      586.68688      14883.884      13543.769      7905.4151      5638.3535      2668.5208      2678.4773      4555.2097      0             -4263.8542      0              0             -159.17393      156624.58      53.903873      53.903873      53.903873      0.7201964      947.00909      525.24503      287.80652    
    132000   264000         549.31864     -286.94291      12924.12       13585.194      7923.4489      5661.7454      2697.7366      2617.4287      4644.9845      0             -4298.4044      0              0             -157.81674      157971.51      54.057953      54.057953      54.057953      0.71405567    -342.78874      325.28073     -843.32072    
    133000   266000         539.60881      17.03598       13425.547      13386.613      7783.393       5603.2204      2663.4987      2688.6331      4582.8324      0             -4331.7437      0              0             -159.0941       156703.17      53.912888      53.912888      53.912888      0.71983518     107.27889      478.43635     -534.6073     
    134000   268000         551.33089      366.65383      14303.975      13472.559      7952.4738      5520.0852      2701.5738      2607.571       4585.9367      0             -4374.9963      0              0             -160.3413       155484.26      53.772737      53.772737      53.772737      0.72547828    -123.82279      168.51914      1055.2651    
    135000   270000         550.34308     -466.44294      12498.845      13573.553      7938.2256      5635.3275      2676.196       2613.4774      4648.8123      0             -4303.1582      0              0             -157.80322      157985.05      54.059497      54.059497      54.059497      0.71399449    -447.53154     -894.11975     -57.677542    
    136000   272000         548.8832       225.90586      14078.924      13562.236      7917.168       5645.068       2622.3751      2694.6489      4669.1369      0             -4341.0929      0              0             -158.96701      156828.45      53.927251      53.927251      53.927251      0.71926017     170.46176      155.05262      352.20321    
    137000   274000         554.13435      421.32452      14673.303      13708.457      7992.9114      5715.5456      2699.7595      2644.9826      4692.3525      0             -4321.5491      0              0             -158.76925      157023.79      53.949631      53.949631      53.949631      0.7183654      1064.4655      951.80966     -752.3016     
    138000   276000         545.65547     -133.13139      13319.083      13625.655      7870.6108      5755.0443      2678.8538      2734.5602      4656.8859      0             -4315.2555      0              0             -157.89041      157897.8       54.049543      54.049543      54.049543      0.71438901    -297.6101       117.46772     -219.25178    
    139000   278000         541.55816      596.06979      14855.793      13498.698      7811.5106      5687.1869      2667.5806      2687.5374      4643.4906      0             -4311.4216      0              0             -159.69613      156112.42      53.845055      53.845055      53.845055      0.72255912     582.78301      608.03865      597.3877     
    140000   280000         550.24408     -603.05336      12130.682      13547.563      7936.7975      5610.7653      2657.973       2618.4923      4518.7118      0             -4184.4118      0              0             -154.74988      161102.22      54.412729      54.412729      54.412729      0.70017939    -962.95934      61.694161     -907.8949     
    141000   282000         560.64029      128.53707      14206.73       13910.111      8086.754       5823.3572      2712.7917      2773.2522      4582.8554      0             -4245.5421      0              0             -157.55694      158232         54.08765       54.08765       54.08765       0.71288016    -105.54288      280.84168      210.3124     
    142000   284000         544.26383      106.28247      13665.466      13419.968      7850.5376      5569.4304      2633.4649      2591.7991      4613.2453      0             -4269.0789      0              0             -157.40589      158383.85      54.104945      54.104945      54.104945      0.71219672    -130.00271      312.34239      136.50775    
    143000   286000         544.63661     -738.3211       11702.654      13408.12       7855.9147      5552.2055      2678.796       2629.6753      4555.7275      0             -4311.9932      0              0             -157.40183      158387.93      54.10541       54.10541       54.10541       0.71217838    -437.95093     -762.10358     -1014.9088    
    144000   288000         540.98444     -533.53369      12185.59       13420.401      7803.2352      5617.1659      2644.095       2660.1028      4575.6033      0             -4262.6351      0              0             -157.09738      158694.87      54.140338      54.140338      54.140338      0.71080088    -675.19435      234.89569     -1160.3024    
    145000   290000         542.89618      206.69677      14021.413      13545.724      7830.8104      5714.914       2694.8793      2590.128       4719.9917      0             -4290.085       0              0             -157.98597      157802.3       54.038644      54.038644      54.038644      0.71482137     441.32546      554.14308     -375.37823    
    146000   292000         549.62415      731.02381      15265.003      13563.648      7927.8556      5635.7922      2621.6782      2653.2639      4556.7415      0             -4195.8914      0              0             -156.22273      159583.37      54.24119       54.24119       54.24119       0.70684343     713.3912       1223.3707      256.30958    
    147000   294000         547.03516      152.34172      14043.96       13694.424      7890.5116      5803.9121      2758.7789      2685.9521      4689.5629      0             -4330.3818      0              0             -158.46539      157324.89      53.984093      53.984093      53.984093      0.71699054    -223.87204     -113.45868      794.35589    
    148000   296000         557.15799     -202.63604      12909.675      13379.84       8036.5248      5343.3149      2539.2525      2450.2202      4653.7243      0             -4299.882       0              0             -156.70203      159095.26      54.185832      54.185832      54.185832      0.70901206     752.79948     -354.23768     -1006.4699    
    149000   298000         551.31315      340.30407      14598.528      13816.723      7952.2179      5864.5048      2742.6311      2684.2028      4719.9877      0             -4282.3168      0              0             -158.26182      157527.25      54.007229      54.007229      54.007229      0.71606948     8.5809496      258.04573      754.28553    
    150000   300000         547.65922     -55.22245       13435.627      13565.124      7899.5132      5665.611       2620.6692      2572.3318      4706.1212      0             -4233.5113      0              0             -155.04674      160793.77      54.37798       54.37798       54.37798       0.70152256     280.78212     -558.39648      111.94702    
    151000   302000         566.91992     -450.52428      12826.494      13872.58       8177.3323      5695.2476      2713.0316      2613.4193      4627.3468      0             -4258.55        0              0             -156.5881       159211.01      54.198969      54.198969      54.198969      0.7084966     -443.47865     -538.93001     -369.1642     
    152000   304000         554.95045      416.6323       14516.427      13569.2        8004.6829      5564.5173      2658.2358      2710.9223      4566.0021      0             -4370.6429      0              0             -159.92145      155892.47      53.819754      53.819754      53.819754      0.72357861     448.28301      713.38278      88.231103    
    153000   306000         555.61725     -386.43339      12893.516      13784.752      8014.3009      5770.4509      2758.8742      2655.5796      4650.6151      0             -4294.618       0              0             -157.64848      158140.12      54.077178      54.077178      54.077178      0.71329435     19.158902     -619.91592     -558.54314    
    154000   308000         555.11937     -169.69313      13264.546      13658.956      8007.1193      5651.8369      2737.8352      2646.4839      4533.5905      0             -4266.0727      0              0             -156.43154      159370.36      54.217045      54.217045      54.217045      0.70778819     198.45676      424.61317     -1132.1493    
    155000   310000         557.35048      1313.5693      16512.13       13529.264      8039.3013      5489.9626      2645.3458      2525.2226      4630.8226      0             -4311.4283      0              0             -160.11315      155705.82      53.798267      53.798267      53.798267      0.72444596     952.67609      1443.6332      1544.3986    
    156000   312000         545.71868     -332.95941      13004.832      13779.256      7871.5225      5907.7332      2732.065       2667.8021      4748.2259      0             -4240.3597      0              0             -156.32214      159481.88      54.229689      54.229689      54.229689      0.70729323    -333.54606      104.54194     -769.87411    
    157000   314000         544.96721     -299.91265      12731.839      13423.813      7860.6832      5563.1301      2633.9254      2565.6033      4630.9081      0             -4267.3067      0              0             -157.58413      158204.7       54.084538      54.084538      54.084538      0.7130032     -420.14844     -803.13441      323.54489    
    158000   316000         546.54325      89.876498      13657.788      13447.989      7883.4163      5564.5725      2604.5308      2579.9442      4602.5244      0             -4222.4269      0              0             -155.7575       160060.03      54.295141      54.295141      54.295141      0.70473844    -146.62628      385.07902      31.176755    
    159000   318000         555.36972     -626.84476      12436.946      13898.895      8010.7305      5888.1645      2764.374       2646.964       4734.5532      0             -4257.7267      0              0             -155.8962       159917.63      54.279034      54.279034      54.279034      0.705366      -759.16381     -503.18589     -618.18458    
    160000   320000         537.50426     -782.76384      11613.697      13445.507      7753.0366      5692.4707      2575.5273      2793.0702      4552.8514      0             -4228.9782      0              0             -155.3667       160462.63      54.340626      54.340626      54.340626      0.70297025    -857.30613     -753.7368      -737.2486     
    161000   322000         554.13984      70.60678       13941.176      13775.784      7992.9905      5782.7936      2659.9614      2647.0222      4737.1346      0             -4261.3245      0              0             -155.21738      160617         54.358046      54.358046      54.358046      0.70229463    -376.03988      25.980892      561.87933    
    162000   324000         548.02597     -247.3601       12952.678      13522.321      7904.8032      5617.5175      2716.6753      2589.3995      4603.439       0             -4291.9964      0              0             -157.88272      157905.5       54.050421      54.050421      54.050421      0.7143542     -370.86351     -373.45285      2.2360455    
    163000   326000         557.83515      404.25059      14514.612      13585.794      8046.2922      5539.5018      2602.5419      2731.3799      4501.6853      0             -4296.1052      0              0             -158.24425      157544.74      54.009228      54.009228      54.009228      0.71598999     286.40496      421.66798      504.67884    
    164000   328000         556.32719     -126.90623      13183.152      13471.831      8024.5412      5447.2902      2601.6038      2609.8886      4576.226       0             -4340.4282      0              0             -159.83601      155975.8       53.829342      53.829342      53.829342      0.72319204    -209.80707     -167.39664     -3.5149943    
    165000   330000         557.48068      635.44682      15247.878      13795.85       8041.1792      5754.6709      2698.9678      2651.5867      4667.6313      0             -4263.5149      0              0             -159.11534      156682.25      53.910488      53.910488      53.910488      0.71993131     736.1602       663.82195      506.35831    
    166000   332000         559.65344     -516.64954      12688.357      13867.894      8072.5195      5795.3747      2678.7112      2678.6971      4759.4377      0             -4321.4712      0              0             -159.25472      156545.12      53.894756      53.894756      53.894756      0.72056193    -355.08885     -998.71075     -196.14902    
    167000   334000         547.83808      136.32526      13919.794      13604.072      7902.0931      5701.9788      2692.6849      2661.5391      4605.9739      0             -4258.2191      0              0             -156.99242      158800.98      54.152402      54.152402      54.152402      0.71032594    -565.86019      313.47818      661.35781    
    168000   336000         551.52301      457.0534       14797.877      13749.914      7955.2451      5794.6685      2681.7849      2664.9081      4752.3116      0             -4304.3362      0              0             -158.57274      157218.38      53.971908      53.971908      53.971908      0.71747628    -353.07554      1100.414       623.82175    
    169000   338000         556.11811      50.89699       13872.001      13756.058      8021.5253      5734.5322      2727.6779      2590.6083      4706.5164      0             -4290.2704      0              0             -159.60812      156198.5       53.854949      53.854949      53.854949      0.72216093     481.15084     -3.5815908     -324.87828    
    170000   340000         544.96796     -85.294483      13403.13       13600.681      7860.6941      5739.9867      2634.9402      2665.1252      4676.5951      0             -4236.6738      0              0             -156.98228      158811.24      54.153568      54.153568      54.153568      0.71028006    -745.53918      38.137067      451.51867    
    171000   342000         549.79967      91.117651      13860.788      13650.869      7930.3873      5720.4819      2512.5927      2721.1044      4785.6501      0             -4298.8652      0              0             -157.81864      157969.61      54.057736      54.057736      54.057736      0.71406427     924.60298     -441.0959      -210.15413    
    172000   344000         549.62164     -493.43793      12605.583      13755.467      7927.8193      5827.6476      2697.041       2729.3522      4641.6365      0             -4240.3821      0              0             -156.02214      159788.54      54.264426      54.264426      54.264426      0.70593582    -459.259       -455.1495      -565.90529    
    173000   346000         565.24119     -408.23689      12876.419      13817.22       8153.118       5664.1021      2572.2361      2633.4227      4745.7473      0             -4287.3041      0              0             -157.76925      158019.07      54.063377      54.063377      54.063377      0.71384077    -375.44611      243.48492     -1092.7495    
    174000   348000         553.62577     -61.275023      13650.585      13793.028      7985.5755      5807.4526      2720.1561      2656.3816      4692.4009      0             -4261.486       0              0             -156.40454      159397.86      54.220164      54.220164      54.220164      0.70766606     213.60155     -623.96993      226.54331    
    175000   350000         546.10378     -20.359299      13656.335      13703.3        7877.0772      5826.2229      2686.8647      2610.7835      4770.0584      0             -4241.4837      0              0             -157.61398      158174.73      54.081123      54.081123      54.081123      0.71313826     782.13322     -216.82729     -626.38382    
    176000   352000         537.59601      249.45427      13933.322      13357.192      7754.36        5602.8324      2668.7329      2630.8582      4569.7706      0             -4266.5292      0              0             -157.42661      158363         54.102571      54.102571      54.102571      0.71229048     538.29847      789.53209     -579.46776    
    177000   354000         558.54659     -49.792011      13668.335      13782.226      8056.5542      5725.6721      2774.5777      2614.4113      4600.6415      0             -4263.9585      0              0             -158.95575      156839.56      53.928524      53.928524      53.928524      0.71920922     235.78488      22.497426     -407.65834    
    178000   356000         532.31189     -500.89689      12245.134      13397.581      7678.1412      5719.4398      2718.5533      2721.447       4623.1684      0             -4343.7288      0              0             -158.02845      157759.88      54.033801      54.033801      54.033801      0.71501358    -814.10527     -137.52433     -551.06108    
    179000   358000         549.25293      153.02606      13873.761      13520.232      7922.5011      5597.7309      2633.3804      2664.1075      4541.7114      0             -4241.4682      0              0             -157.37961      158410.29      54.107956      54.107956      54.107956      0.71207784     352.13001      99.530649      7.4175261    
    180000   360000         556.95329      181.10862      14115.82       13701.344      8033.5721      5667.772       2651.7163      2683.5525      4614.3794      0             -4281.8763      0              0             -158.87196      156922.28      53.938003      53.938003      53.938003      0.7188301      588.03441      387.20258     -431.91115    
    181000   362000         550.24069     -187.4957       13147.044      13576.818      7936.7487      5640.069       2628.5803      2606.4736      4697.7791      0             -4292.7641      0              0             -158.62065      157170.89      53.966473      53.966473      53.966473      0.71769305     420.4561      -513.85506     -469.08812    
    182000   364000         552.50986     -389.27152      12919.668      13832.98       7969.4795      5863.5007      2666.8132      2701.0762      4699.3098      0             -4203.6985      0              0             -154.9676       160875.88      54.387235      54.387235      54.387235      0.70116448    -91.58211      -1048.4627     -27.769786    
    183000   366000         555.07963     -1002.7475      11536.593      13891.215      8006.5463      5884.6691      2746.1796      2701.6384      4622.7737      0             -4185.9226      0              0             -154.83818      161010.35      54.402383      54.402383      54.402383      0.70057893    -900.74002     -814.51538     -1292.987     
    184000   368000         551.69008      848.64044      15445.053      13498.875      7957.6549      5541.2202      2586.0119      2654.6421      4599.2477      0             -4298.6816      0              0             -158.54368      157247.2       53.975205      53.975205      53.975205      0.71734478     705.01261      874.59443      966.31429    
    185000   370000         546.40645     -450.81698      12492.979      13525.601      7881.443       5644.1583      2755.6658      2572.6383      4632.4435      0             -4316.5894      0              0             -158.73278      157059.87      53.953764      53.953764      53.953764      0.71820035    -205.82451     -659.72424     -486.90219    
    186000   372000         546.88059     -185.03059      13160.088      13585.295      7888.2821      5697.0131      2723.6016      2607.8948      4626.4889      0             -4260.9721      0              0             -158.21603      157572.84      54.012439      54.012439      54.012439      0.71586229    -709.26583     -381.44785      535.62191    
    187000   374000         541.54743     -502.95345      12404.28       13554.776      7811.3559      5743.4206      2635.1546      2660.9093      4757.1946      0             -4309.8379      0              0             -158.94625      156848.93      53.929598      53.929598      53.929598      0.71916625     93.256091     -1000.5661     -601.55036    
    188000   376000         543.49697      88.806331      13527.782      13324.105      7839.4763      5484.6284      2528.093       2639.2446      4634.7877      0             -4317.4968      0              0             -158.52913      157261.63      53.976857      53.976857      53.976857      0.71727894    -159.78358      282.76039      143.44218    
    189000   378000         547.99082      168.88101      14124.863      13732.855      7904.2963      5828.5592      2756.8971      2582.6193      4729.5279      0             -4240.4851      0              0             -156.63674      159161.57      54.193359      54.193359      54.193359      0.70871664     209.48116     -580.45104      877.61291    
    190000   380000         552.10967     -184.59654      13293.687      13727.446      7963.7071      5763.7387      2661.7711      2636.373       4660.3231      0             -4194.7285      0              0             -154.73285      161119.95      54.414725      54.414725      54.414725      0.70010236    -493.22285      129.0341      -189.60089    
    191000   382000         540.09409     -872.4879       11550.683      13587.605      7790.3927      5797.2127      2745.9037      2589.8425      4708.1172      0             -4246.6507      0              0             -155.7373       160080.78      54.297488      54.297488      54.297488      0.70464707    -1352.1932     -446.29136     -818.97914    
    192000   384000         546.84915      526.61045      14740.179      13527.759      7887.8286      5639.9301      2697.7693      2531.6117      4706.4306      0             -4295.8815      0              0             -157.92248      157865.74      54.045885      54.045885      54.045885      0.71453409     743.67075     -272.1631       1108.3237    
    193000   386000         543.46501     -43.972354      13283.007      13384.416      7839.0153      5545.4007      2653.9308      2591.6467      4597.51        0             -4297.6867      0              0             -157.65646      158132.12      54.076266      54.076266      54.076266      0.71333046    -370.90299      269.15037     -30.164444    
    194000   388000         553.8431       194.28413      13957.723      13521.066      7988.7103      5532.3553      2740.868       2600.7356      4601.5577      0             -4410.8059      0              0             -161.77249      154108.71      53.613693      53.613693      53.613693      0.73195381     309.49924      182.45102      90.902115    
    195000   390000         551.36448      112.45185      13808.765      13552.622      7952.9584      5599.6634      2666.0876      2641.2884      4631.8033      0             -4339.5159      0              0             -159.62169      156185.23      53.853424      53.853424      53.853424      0.72222231    -347.78305     -233.68519      918.82379    
    196000   392000         552.68457      244.3713       14115.481      13559.324      7971.9995      5587.3244      2643.4534      2609.7373      4706.9151      0             -4372.7813      0              0             -159.75721      156052.73      53.838191      53.838191      53.838191      0.7228355     -500.47843      700.51619      533.07613    
    197000   394000         558.10062      511.45986      14997.882      13796.369      8050.1214      5746.2477      2661.7424      2703.8334      4596.0903      0             -4215.4185      0              0             -154.77152      161079.7       54.410194      54.410194      54.410194      0.70027729     73.502796      872.41688      588.4599     
    198000   396000         561.4897      -363.38778      12979.04       13814.575      8099.0059      5715.5695      2641.0654      2664.7799      4678.1553      0             -4268.4311      0              0             -158.12957      157659         54.022282      54.022282      54.022282      0.71547107    -793.44251     -637.58494      340.86411    
    199000   398000         543.17953     -589.75376      11916.081      13256.521      7834.8975      5421.6237      2661.6217      2554.0569      4569.0375      0             -4363.0925      0              0             -159.96725      155847.83      53.814617      53.814617      53.814617      0.72378585    -1185.4705     -150.39199     -433.39883    
    200000   400000         540.2998      -343.19386      12679.623      13461.245      7793.3599      5667.8852      2617.8197      2770.1089      4602.6787      0             -4322.7221      0              0             -159.64314      156164.24      53.851011      53.851011      53.851011      0.72231939    -297.85249     -833.71448      101.98541    
[...]
    458000   916000         542.82965     -279.56599      12782.386      13421.405      7829.8507      5591.5539      2650.8733      2695.5905      4566.9131      0             -4321.8229      0              0             -159.06633      156730.52      53.916024      53.916024      53.916024      0.71970956    -40.586054     -124.0078      -674.1041     
    459000   918000         562.47026     -110.33877      13546.615      13799.085      8113.1497      5685.9357      2666.4063      2677.0866      4660.3506      0             -4317.9079      0              0             -158.90053      156894.06      53.934771      53.934771      53.934771      0.71895936    -263.12547     -378.63577      310.74493    
    460000   920000         549.90257      11.974163      13539.012      13511.894      7931.8716      5580.0226      2719.4824      2668.8124      4566.2164      0             -4374.4885      0              0             -160.54489      155287.09      53.749998      53.749998      53.749998      0.72639942    -364.1112       512.92337     -112.88968    
    461000   922000         558.30762      946.39617      15667.73       13485.938      8053.1072      5432.8307      2564.2391      2634.4723      4506.4554      0             -4272.3361      0              0             -157.71293      158075.5       54.069811      54.069811      54.069811      0.71358596     1531.438       280.30807      1027.4424    
    462000   924000         553.36258      401.63101      14510.052      13569.102      7981.7792      5587.3225      2672.225       2605.6456      4522.2054      0             -4212.7535      0              0             -155.19171      160643.57      54.361043      54.361043      54.361043      0.70217848     583.87953      135.25118      485.76231    
    463000   926000         552.93665      588.23792      15083.045      13722.921      7975.6356      5747.2852      2736.9998      2661.5361      4638.2146      0             -4289.4652      0              0             -157.24694      158543.94      54.123169      54.123169      54.123169      0.71147754     446.84819      1109.3721      208.49347    
    464000   928000         556.2555       317.96184      14522.069      13781.29       8023.5071      5757.7833      2666.3926      2689.8581      4653.6122      0             -4252.0796      0              0             -156.06101      159748.74      54.25992       54.25992       54.25992       0.70611169     815.16551     -216.44738      355.16739    
    465000   930000         547.68634     -379.74751      12647.924      13537.157      7899.9043      5637.2524      2617.3585      2631.0292      4620.7733      0             -4231.9086      0              0             -155.26995      160562.62      54.35191       54.35191       54.35191       0.70253249    -336.82553     -230.04798     -572.36902    
    466000   932000         559.88653      91.721986      14056.524      13847.545      8075.8816      5771.6635      2657.1393      2660.3577      4749.5141      0             -4295.3476      0              0             -159.58004      156225.99      53.858109      53.858109      53.858109      0.72203385     557.70385      140.84267     -423.38056    
    467000   934000         550.1199       58.224113      13884.513      13750.397      7935.0064      5815.3908      2710.165       2683.5231      4711.7329      0             -4290.0303      0              0             -157.84517      157943.07      54.054708      54.054708      54.054708      0.71418428    -655.30777      16.987162      812.99295    
    468000   936000         557.84343     -58.223895      13604.648      13740.497      8046.4117      5694.0857      2667.533       2679.8779      4576.5666      0             -4229.8918      0              0             -155.83018      159985.37      54.286698      54.286698      54.286698      0.7050673      597.90382     -925.82764      153.25214    
    469000   938000         554.2412       1125.8543      16222.072      13630.182      7994.4525      5635.7296      2692.7402      2581.6636      4611.2194      0             -4249.8937      0              0             -157.93319      157855.04      54.044663      54.044663      54.044663      0.71458254     1145.9905      1793.7588      437.81368    
    470000   940000         550.134        1.1715778      13510.417      13507.742      7935.2097      5572.5325      2589.6037      2676.0371      4628.5263      0             -4321.6346      0              0             -159.2361       156563.43      53.896857      53.896857      53.896857      0.72047769     90.020342     -68.924065     -17.581544    
    471000   942000         567.21201      37.830686      13716.473      13630.38       8181.5453      5448.835       2654.4307      2614.9549      4560.1092      0             -4380.6599      0              0             -159.76686      156043.31      53.837107      53.837107      53.837107      0.72287916     844.21611     -321.7365      -408.98755    
    472000   944000         550.80659     -382.95688      12758.69       13641.936      7944.9113      5697.0247      2735.1283      2627.0213      4632.9786      0             -4298.1035      0              0             -157.64347      158145.15      54.077751      54.077751      54.077751      0.71327168     134.00715     -944.81378     -338.06402    
    473000   946000         547.86864     -623.55283      12085.769      13511.427      7902.5339      5608.8931      2633.7625      2645.8057      4647.8472      0             -4318.5223      0              0             -159.02508      156771.18      53.920686      53.920686      53.920686      0.71952293     134.79318     -835.0254      -1170.4263    
    474000   948000         544.07606      236.76551      14184.484      13631.875      7847.8291      5784.0456      2776.6078      2684.4665      4555.4095      0             -4232.4382      0              0             -155.77872      160038.22      54.292675      54.292675      54.292675      0.70483447     733.58836      359.67244     -382.96426    
    475000   950000         551.513        460.48172      14762.759      13684.846      7955.1006      5729.7452      2760.6714      2530.8305      4622.3563      0             -4184.1129      0              0             -155.32321      160507.56      54.345697      54.345697      54.345697      0.70277348    -218.64462      651.62083      948.46896    
    476000   952000         556.02329     -88.27409       13503.069      13706.845      8020.1577      5686.6869      2633.945       2709.644       4602.6561      0             -4259.5582      0              0             -157.50283      158286.36      54.093843      54.093843      54.093843      0.71263534     352.93574     -627.81138      10.053375    
    477000   954000         551.33573     -129.69661      13594.405      13900.842      7952.5437      5948.2984      2748.8662      2636.6233      4686.6697      0             -4123.861       0              0             -153.88447      162008.23      54.51454       54.51454       54.51454       0.69626376    -403.96667     -151.54082      166.41767    
    478000   956000         545.07501     -287.51755      12984.797      13642.502      7862.2381      5780.2634      2678.4507      2739.2695      4680.365       0             -4317.8217      0              0             -158.943        156852.14      53.929966      53.929966      53.929966      0.71915152    -34.377566     -302.85278     -525.32231    
    479000   958000         551.58324     -401.61817      12773.373      13694.71       7956.1137      5738.5961      2679.5987      2702.1213      4669.8579      0             -4312.9819      0              0             -158.49033      157300.13      53.981261      53.981261      53.981261      0.71710339    -197.87342     -663.82613     -343.15495    
    480000   960000         535.92073      35.518505      13480.666      13397.941      7730.1955      5667.7455      2609.8673      2683.8748      4631.393       0             -4257.3896      0              0             -156.10878      159699.85      54.254384      54.254384      54.254384      0.70632785    -379.99278      243.54652      243.00177    
    481000   962000         558.18187     -761.49313      12016.902      13804.695      8051.2934      5753.4016      2691.195       2612.7829      4650.1454      0             -4200.7216      0              0             -154.86617      160981.25      54.399106      54.399106      54.399106      0.70070556    -840.96998     -885.94404     -557.56537    
    482000   964000         542.65225     -344.01128      12810.207      13604.663      7827.2919      5777.3712      2734.5402      2678.6366      4669.3824      0             -4305.188       0              0             -157.43831      158351.23      54.101231      54.101231      54.101231      0.71234342    -231.90741     -168.68385     -631.44259    
    483000   966000         551.20852      451.80242      14870.287      13826.835      7950.7088      5876.1266      2720.1001      2609.7515      4815.5444      0             -4269.2694      0              0             -157.42868      158360.92      54.102334      54.102334      54.102334      0.71229985     190.30547      452.07598      713.0258     
    484000   968000         553.33778     -1063.7177      11239.908      13722.055      7981.4214      5740.6332      2650.3623      2695.6851      4570.9413      0             -4176.3556      0              0             -155.81409      160001.89      54.288566      54.288566      54.288566      0.70499452    -1243.382      -837.59101     -1110.18      
    485000   970000         557.264       -365.0585       12834.819      13669.453      8038.0539      5631.399       2658.5921      2653.4409      4642.985       0             -4323.6189      0              0             -159.0283       156768.01      53.920322      53.920322      53.920322      0.71953746    -128.03912     -536.16384     -430.97254    
    486000   972000         554.33903      287.73328      14524.696      13861.928      7995.8636      5866.0642      2705.1773      2710.7245      4711.4857      0             -4261.3233      0              0             -157.847        157941.23      54.054498      54.054498      54.054498      0.7141926     -109.27992      312.36936      660.11041    
    487000   974000         541.92038     -347.9614       12767.218      13577.644      7816.7354      5760.9082      2671.6681      2596.8301      4724.4847      0             -4232.0748      0              0             -156.10819      159700.46      54.254453      54.254453      54.254453      0.70632517    -518.37407     -413.33715     -112.17298    
    488000   976000         551.3259      -312.71599      12848.213      13572.442      7952.4019      5620.0405      2623.382       2712.1312      4533.3485      0             -4248.8212      0              0             -156.99348      158799.9       54.152279      54.152279      54.152279      0.71033077    -1348.8709      592.39917     -181.67623    
    489000   978000         562.66544      160.41274      14066.912      13699.195      8115.965       5583.2298      2626.4211      2630.2676      4663.9908      0             -4337.4498      0              0             -158.61081      157180.65      53.96759       53.96759       53.96759       0.71764848     294.53364     -169.62985      356.33442    
    490000   980000         542.55569     -512.49862      12257.921      13422.576      7825.8991      5596.6764      2708.3896      2653.6353      4622.8972      0             -4388.2456      0              0             -159.99388      155821.9       53.811632      53.811632      53.811632      0.72390631    -597.27684      126.96183     -1067.1808    
    491000   982000         558.83248      41.408553      13754.661      13660.265      8060.6778      5599.5876      2640.9202      2671.8834      4629.1962      0             -4342.4122      0              0             -159.49411      156310.15      53.867778      53.867778      53.867778      0.72164509    -50.402354      116.79581      57.8322      
    492000   984000         550.03335      107.45438      13937.722      13688.756      7933.758       5754.998       2643.4271      2684.7872      4677.8589      0             -4251.0753      0              0             -156.92484      158869.36      54.160174      54.160174      54.160174      0.71002019     444.33861      1085.5216     -1207.497     
    493000   986000         535.26915      51.154247      13602.349      13485.268      7720.7971      5764.4714      2747.4557      2701.546       4646.285       0             -4330.8153      0              0             -158.85666      156937.39      53.939735      53.939735      53.939735      0.71876089     1200.1884     -595.93887     -450.78682    
    494000   988000         570.4534       180.67375      14156.525      13740.933      8228.2996      5512.6337      2625.3073      2677.5852      4523.8146      0             -4314.0734      0              0             -158.06496      157723.44      54.029641      54.029641      54.029641      0.71517876     418.98501     -6.4915335      129.52778    
    495000   990000         552.95803     -292.64045      12979.36       13647.445      7975.944       5671.5009      2671.5037      2678.4318      4643.9643      0             -4322.3988      0              0             -159.26145      156538.5       53.893997      53.893997      53.893997      0.72059239    -38.436607     -364.22636     -475.25838    
    496000   992000         547.62151      762.6471       15367.019      13636.5        7898.9692      5737.5308      2795.037       2645.7214      4666.9552      0             -4370.1829      0              0             -160.23407      155588.32      53.78473       53.78473       53.78473       0.7249931      805.44113      503.5814       978.91878    
    497000   994000         546.76321     -534.41711      12354.322      13592.618      7886.589       5706.0289      2732.7895      2637.7393      4654.9597      0             -4319.4596      0              0             -156.91477      158879.56      54.161333      54.161333      54.161333      0.70997461    -696.30533     -377.62068     -529.32533    
    498000   996000         544.58433      42.065231      13566.076      13471.67       7855.1605      5616.5099      2692.5409      2668.865       4728.8668      0             -4473.7628      0              0             -162.00625      153886.35      53.587895      53.587895      53.587895      0.73301146     402.46251      339.69027     -615.95709    
    499000   998000         544.19273      34.679359      13721.088      13642.096      7849.512       5792.5835      2806.0783      2616.471       4734.4595      0             -4364.4254      0              0             -159.62202      156184.9       53.853387      53.853387      53.853387      0.7222238      195.66013     -314.99514      223.37309    
    500000   1000000        550.026        340.3834       14232.253      13454.539      7933.652       5520.887       2723.7588      2544.6935      4575.6313      0             -4323.1966      0              0             -159.13144      156666.4       53.90867       53.90867       53.90867       0.72000414    -91.670663      1009.5167      103.30415    
Loop time of 417.847 on 1 procs for 500000 steps with 4840 atoms

Performance: 206.774 ns/day, 0.116 hours/ns, 1196.611 timesteps/s, 5.792 Matom-step/s
99.3% CPU use with 1 MPI tasks x 1 OpenMP threads

MPI task timing breakdown:
Section |  min time  |  avg time  |  max time  |%varavg| %total
---------------------------------------------------------------
Pair    | 44.427     | 44.427     | 44.427     |   0.0 | 10.63
Bond    | 295.45     | 295.45     | 295.45     |   0.0 | 70.71
Neigh   | 0.11749    | 0.11749    | 0.11749    |   0.0 |  0.03
Comm    | 26.195     | 26.195     | 26.195     |   0.0 |  6.27
Output  | 4.0286     | 4.0286     | 4.0286     |   0.0 |  0.96
Modify  | 40.191     | 40.191     | 40.191     |   0.0 |  9.62
Other   |            | 7.44       |            |       |  1.78

Nlocal:           4840 ave        4840 max        4840 min
Histogram: 1 0 0 0 0 0 0 0 0 0
Nghost:          14699 ave       14699 max       14699 min
Histogram: 1 0 0 0 0 0 0 0 0 0
Neighs:              0 ave           0 max           0 min
Histogram: 1 0 0 0 0 0 0 0 0 0

Total # of neighbors = 0
Ave neighs/atom = 0
Ave special neighs/atom = 5.9504132
Neighbor list builds = 20019
Dangerous builds = 0

# --- Cleanup ---
unfix npt_fix

undump dump_npt

# --- Write Output ---
write_dump all custom npt_melt_last.dump id type mol x y z xu yu zu vx vy vz modify sort id
write_data /home/alexzhao/PolyJarvis/data/PE4/lammps/equil/npt_melt/npt_melt_out.data
System init for write_data ...
Generated 1 of 1 mixed pair_coeff terms from arithmetic mixing rule

print "STAGE COMPLETE: NPT T=550.0->550.0K P=1.0->1.0atm steps=500000"
STAGE COMPLETE: NPT T=550.0->550.0K P=1.0->1.0atm steps=500000
quit
 | 0.11749    | 0.11749    | 0.11749    |   0.0 |  0.03
Comm    | 26.195     | 26.195     | 26.195     |   0.0 |  6.27
Output  | 4.0286     | 4.0286     | 4.0286     |   0.0 |  0.96
Modify  | 40.191     | 40.191     | 40.191     |   0.0 |  9.62
Other   |            | 7.44       |            |       |  1.78

Nlocal:           4840 ave        4840 max        4840 min
Histogram: 1 0 0 0 0 0 0 0 0 0
Nghost:          14699 ave       14699 max       14699 min
Histogram: 1 0 0 0 0 0 0 0 0 0
Neighs:              0 ave           0 max           0 min
Histogram: 1 0 0 0 0 0 0 0 0 0

Total # of neighbors = 0
Ave neighs/atom = 0
Ave special neighs/atom = 5.9504132
Neighbor list builds = 20019
Dangerous builds = 0
System init for write_data ...


---------------------------------------------------------------------
      Device Time Info (average): 
---------------------------------------------------------------------
Data Transfer:   17.3864 s.
Neighbor copy:   1.5036 s.
Neighbor build:  11.3940 s.
Force calc:      42.3184 s.
Device Overhead: 19.8560 s.
CPU Neighbor:    3.6661 s.
CPU Cast/Pack:   13.3823 s.
CPU Driver_Time: 8.8567 s.
CPU Idle_Time:   1.0759 s.
Average split:   1.0000.
Max Mem / Proc:  34.21 MB.
Prefetch mode:   None.
Vector width:    32.
Lanes / atom:    4.
Pair block:      256.
Neigh block:     128.
Neigh mode:      Hybrid (binning on host) with subgroup support.
Neigh sorting:   Unavailable or disabled.
---------------------------------------------------------------------


--------------------------------------------------------------------------
- Using acceleration for lj/cut:
-  with 1 proc(s) per device.
-  with 1 thread(s) per proc.
-  Horizontal vector operations: ENABLED
-  Shared memory system: No
--------------------------------------------------------------------------
Device 0: NVIDIA A800 40GB Active, 108 CUs, 39/39 GB, 1.4 GHZ (Mixed Precision)
--------------------------------------------------------------------------

Initializing Device and compiling on process 0...Done.
Initializing Device 0 on core 0...Done.

Generated 1 of 1 mixed pair_coeff terms from arithmetic mixing rule
STAGE COMPLETE: NPT T=550.0->550.0K P=1.0->1.0atm steps=500000
Cuda driver error 4 in call at file '/home/alexzhao/lammps/lib/gpu/geryon/nvd_timer.h' in line 98.
Cuda driver error 4 in call at file '/home/alexzhao/lammps/lib/gpu/geryon/nvd_timer.h' in line 99.
Cuda driver error 4 in call at file '/home/alexzhao/lammps/lib/gpu/geryon/nvd_timer.h' in line 98.
Cuda driver error 4 in call at file '/home/alexzhao/lammps/lib/gpu/geryon/nvd_timer.h' in line 99.
Cuda driver error 4 in call at file '/home/alexzhao/lammps/lib/gpu/geryon/nvd_timer.h' in line 98.
Cuda driver error 4 in call at file '/home/alexzhao/lammps/lib/gpu/geryon/nvd_timer.h' in line 99.
