units real
atom_style full
boundary p p p
pair_style lj/class2/coul/long 9.5 9.5
kspace_style pppm 1e-6
dielectric 1.000000
bond_style class2
angle_style class2
dihedral_style class2
improper_style class2
special_bonds lj/coul 0 0 1
pair_modify mix sixthpower tail yes
neighbor 2.0 bin
neigh_modify delay 0 every 1 check yes
neigh_modify one 4000
read_data /home/arz2/PolyJarvis/data/PSU1/lammps/npt_prod300/npt_prod300_out.data
Reading data file ...
  orthogonal box = (5.5761543 5.5761543 5.5761543) to (51.880757 51.880757 51.880757)
  1 by 1 by 1 MPI processor grid
  reading atoms ...
  8656 atoms
  reading velocities ...
  8656 velocities
  scanning bonds ...
  4 = max bonds/atom
  scanning angles ...
  16 = max angles/atom
  scanning dihedrals ...
  38 = max dihedrals/atom
  scanning impropers ...
  12 = max impropers/atom
  orthogonal box = (5.5761543 5.5761543 5.5761543) to (51.880757 51.880757 51.880757)
  1 by 1 by 1 MPI processor grid
  reading bonds ...
  9288 bonds
  reading angles ...
  15680 angles
  reading dihedrals ...
  23344 dihedrals
  reading impropers ...
  6400 impropers
Finding 1-2 1-3 1-4 neighbors ...
  special bond factors lj:    0        0        1       
  special bond factors coul:  0        0        1       
     4 = max # of 1-2 neighbors
    10 = max # of 1-3 neighbors
    14 = max # of special neighbors
  special bonds CPU = 0.006 seconds
  read_data CPU = 0.525 seconds
include /home/arz2/PolyJarvis/data/PSU1/lammps/cell/emc_build.params
# LAMMPS parameters created by EMC v9.4.4, build Jul 31 2025 20:33:44

# Variables

variable	seed		index	-1
variable	ntotal		index	8656
variable	fshape		index	1
variable	output		index	emc_build
variable	field		index	pcff/pcff
variable	location1	index	/home/arz2/emc/field/
variable	nav		index	0.6022141179
variable	temperature	index	300
variable	radius		index	5
variable	nrelax		index	100
variable	weight_nonbond	index	0.0001
variable	weight_bond	index	0.0001
variable	weight_focus	index	1
variable	cutoff		index	9.5
variable	charge_cutoff	index	9.5
variable	kappa		index	4
variable	density1	index	0.62
variable	lprevious	index	0
variable	lphase		index	57.4569112838
variable	f_poly		index	8
variable	chem_repeat	index	*Oc1ccc(C(C)(C)c2ccc(Oc3ccc(S(=O)(=O)c4ccc(*)cc4)cc3)cc2)cc1
variable	chem_cap	index	*[H]
variable	lg_repeat	index	54
variable	lg_cap		index	1
variable	norm_poly	index	100
variable	l_poly		index	1082
variable	mg_repeat	index	414.52744
variable	mg_cap		index	0
variable	m_poly		index	8290.5488
variable	n_poly		index	8
variable	mtotal		index	70822.20592
variable	nphase1		index	8656
variable	mphase1		index	70822.20592
variable	vphase1		index	189682.308986
variable	lbox		index	57.4569112838
variable	lphase1		index	57.4569112838
variable	lxx		index	57.4569112838
variable	lyy		index	57.4569112838
variable	lzz		index	57.4569112838
variable	lzy		index	0
variable	lzx		index	0
variable	lyx		index	0
variable	vtotal		index	189682.308986
variable	nl_poly		index	8

# Types

variable	type_c		index	1
variable	type_cp		index	2
variable	type_hc		index	3
variable	type_ho		index	4
variable	type_oe		index	5
variable	type_oc		index	6
variable	type_oh		index	7
variable	type_sf		index	8

variable	type_bond_c_c	index	1
variable	type_bond_c_cp	index	2
variable	type_bond_c_hc	index	3
variable	type_bond_cp_cp	index	4
variable	type_bond_cp_hc	index	5
variable	type_bond_cp_oc	index	6
variable	type_bond_cp_oh	index	7
variable	type_bond_cp_sf	index	8
variable	type_bond_ho_oh	index	9
variable	type_bond_oe_sf	index	10

variable	type_angle_c_c_c index	1
variable	type_angle_c_c_cp index	2
variable	type_angle_c_c_hc index	3
variable	type_angle_c_cp_cp index	4
variable	type_angle_cp_c_cp index	5
variable	type_angle_cp_cp_cp index	6
variable	type_angle_cp_cp_hc index	7
variable	type_angle_cp_cp_oc index	8
variable	type_angle_cp_cp_oh index	9
variable	type_angle_cp_cp_sf index	10
variable	type_angle_cp_oc_cp index	11
variable	type_angle_cp_oh_ho index	12
variable	type_angle_cp_sf_cp index	13
variable	type_angle_cp_sf_oe index	14
variable	type_angle_hc_c_hc index	15
variable	type_angle_oe_sf_oe index	16

# Clusters

variable	n0_poly		index	1
variable	n1_poly		index	8
variable	nl_poly		index	8

# Flags

variable	flag_charged	index	1

# Masses

mass		1    12.01115  # c
mass		2    12.01115  # cp
mass		3     1.00797  # hc
mass		4     1.00797  # ho
mass		5    15.99940  # o=
mass		6    15.99940  # oc
mass		7    15.99940  # oh
mass		8    32.06400  # sf

# Potentials

pair_modify	mix sixthpower tail yes
special_bonds	lj/coul 0 0 1

# Pair Coeffs

pair_coeff	 1  1    0.05400    4.01000  # c,c
pair_coeff	 2  2    0.06400    4.01000  # cp,cp
pair_coeff	 3  3    0.02000    2.99500  # hc,hc
pair_coeff	 4  4    0.01300    1.09800  # ho,ho
pair_coeff	 5  5    0.06000    3.53500  # o=,o=
pair_coeff	 6  6    0.24000    3.53500  # oc,oc
pair_coeff	 7  7    0.24000    3.53500  # oh,oh
pair_coeff	 8  8    0.25000    4.02700  # sf,sf

# Bond Coeffs

bond_coeff	 1    1.53000  299.67000 -501.77000  679.81000  # c,c
bond_coeff	 2    1.50100  321.90210 -521.82080  572.16280  # c,cp
bond_coeff	 3    1.10100  345.00000 -691.89000  844.60000  # c,hc
bond_coeff	 4    1.41700  470.83610 -627.61790 1327.63450  # cp,cp
bond_coeff	 5    1.09820  372.82510 -803.45260  894.31730  # cp,hc
bond_coeff	 6    1.37680  428.87980 -738.23510 1114.96550  # cp,oc
bond_coeff	 7    1.37680  428.87980 -738.23510 1114.96550  # cp,oh
bond_coeff	 8    1.72000  239.80240    0.00000    0.00000  # cp,sf
bond_coeff	 9    0.96500  532.50620 -1282.90500 2004.76580  # ho,oh
bond_coeff	10    1.43080  743.76000    0.00000    0.00000  # o=,sf

# Angle Coeffs

angle_coeff	 1  112.67000   39.51600   -7.44300   -9.55830  # c,c,c
angle_coeff	 2  108.40000   43.95940   -8.39240   -9.33790  # c,c,cp
angle_coeff	 3  110.77000   41.45300  -10.60400    5.12900  # c,c,hc
angle_coeff	 4  120.05000   44.71480  -22.73520    0.00000  # c,cp,cp
angle_coeff	 5  111.00000   44.32340   -9.44540    0.00000  # cp,c,cp
angle_coeff	 6  118.90000   61.02260  -34.99310    0.00000  # cp,cp,cp
angle_coeff	 7  117.94000   35.15580  -12.46820    0.00000  # cp,cp,hc
angle_coeff	 8  123.42000   73.67810  -21.67870    0.00000  # cp,cp,oc
angle_coeff	 9  123.42000   73.67810  -21.67870    0.00000  # cp,cp,oh
angle_coeff	10  120.00000   60.00000    0.00000    0.00000  # cp,cp,sf
angle_coeff	11  109.50000   60.00000    0.00000    0.00000  # cp,oc,cp
angle_coeff	12  108.19000   53.12500   -8.50160    0.00000  # cp,oh,ho
angle_coeff	13  102.00000   58.00000    0.00000    0.00000  # cp,sf,cp
angle_coeff	14  113.10000   42.30000    0.00000    0.00000  # cp,sf,o=
angle_coeff	15  107.66000   39.64100  -12.92100   -2.43180  # hc,c,hc
angle_coeff	16  119.32900  135.00000    0.00000    0.00000  # o=,sf,o=

# BondBond Coeffs

angle_coeff	 1 bb    0.00000    1.53000    1.53000  # c,c,c
angle_coeff	 2 bb    0.00000    1.53000    1.50100  # c,c,cp
angle_coeff	 3 bb    3.38720    1.53000    1.10100  # c,c,hc
angle_coeff	 4 bb   12.06760    1.50100    1.41700  # c,cp,cp
angle_coeff	 5 bb    0.00000    1.50100    1.50100  # cp,c,cp
angle_coeff	 6 bb   68.28560    1.41700    1.41700  # cp,cp,cp
angle_coeff	 7 bb    1.07950    1.41700    1.09820  # cp,cp,hc
angle_coeff	 8 bb   48.47540    1.41700    1.37680  # cp,cp,oc
angle_coeff	 9 bb   48.47540    1.41700    1.37680  # cp,cp,oh
angle_coeff	10 bb    0.00000    1.41700    1.72000  # cp,cp,sf
angle_coeff	11 bb    0.00000    1.37680    1.37680  # cp,oc,cp
angle_coeff	12 bb   20.65770    1.37680    0.96500  # cp,oh,ho
angle_coeff	13 bb    0.00000    1.72000    1.72000  # cp,sf,cp
angle_coeff	14 bb    0.00000    1.72000    1.43080  # cp,sf,o=
angle_coeff	15 bb    5.33160    1.10100    1.10100  # hc,c,hc
angle_coeff	16 bb   40.00000    1.43080    1.43080  # o=,sf,o=

# BondAngle Coeffs

angle_coeff	 1 ba    8.01600    8.01600    1.53000    1.53000  # c,c,c
angle_coeff	 2 ba    0.00000    0.00000    1.53000    1.50100  # c,c,cp
angle_coeff	 3 ba   20.75400   11.42100    1.53000    1.10100  # c,c,hc
angle_coeff	 4 ba   47.05790   31.07710    1.50100    1.41700  # c,cp,cp
angle_coeff	 5 ba    0.00000    0.00000    1.50100    1.50100  # cp,c,cp
angle_coeff	 6 ba   28.87080   28.87080    1.41700    1.41700  # cp,cp,cp
angle_coeff	 7 ba   20.00330   24.21830    1.41700    1.09820  # cp,cp,hc
angle_coeff	 8 ba   58.47900  107.68060    1.41700    1.37680  # cp,cp,oc
angle_coeff	 9 ba   58.47900  107.68060    1.41700    1.37680  # cp,cp,oh
angle_coeff	10 ba    0.00000    0.00000    1.41700    1.72000  # cp,cp,sf
angle_coeff	11 ba    0.00000    0.00000    1.37680    1.37680  # cp,oc,cp
angle_coeff	12 ba   53.86140   23.92240    1.37680    0.96500  # cp,oh,ho
angle_coeff	13 ba    0.00000    0.00000    1.72000    1.72000  # cp,sf,cp
angle_coeff	14 ba    0.00000    0.00000    1.72000    1.43080  # cp,sf,o=
angle_coeff	15 ba   18.10300   18.10300    1.10100    1.10100  # hc,c,hc
angle_coeff	16 ba    0.00000    0.00000    1.43080    1.43080  # o=,sf,o=

# Dihedral Coeffs

dihedral_coeff	 1    0.00000    0.00000    0.03160    0.00000   -0.16810    0.00000  # c,c,c,hc
dihedral_coeff	 2   -0.28020    0.00000   -0.06780    0.00000   -0.01220    0.00000  # c,c,cp,cp
dihedral_coeff	 3    0.00000    0.00000    4.40720    0.00000    0.00000    0.00000  # c,cp,cp,cp
dihedral_coeff	 4    0.00000    0.00000    1.55900    0.00000    0.00000    0.00000  # c,cp,cp,hc
dihedral_coeff	 5   -0.02280    0.00000    0.02800    0.00000   -0.18630    0.00000  # cp,c,c,hc
dihedral_coeff	 6   -0.28020    0.00000   -0.06780    0.00000   -0.01220    0.00000  # cp,c,cp,cp
dihedral_coeff	 7    8.36670    0.00000    1.19320    0.00000    0.00000    0.00000  # cp,cp,cp,cp
dihedral_coeff	 8    0.00000    0.00000    3.96610    0.00000    0.00000    0.00000  # cp,cp,cp,hc
dihedral_coeff	 9    0.00000    0.00000    4.84980    0.00000    0.00000    0.00000  # cp,cp,cp,oc
dihedral_coeff	10    0.00000    0.00000    4.84980    0.00000    0.00000    0.00000  # cp,cp,cp,oh
dihedral_coeff	11    0.00000    0.00000    3.00000    0.00000    0.00000    0.00000  # cp,cp,cp,sf
dihedral_coeff	12    0.00000    0.00000    1.80000    0.00000    0.00000    0.00000  # cp,cp,oc,cp
dihedral_coeff	13   -0.69000    0.00000    0.50970    0.00000    0.00950    0.00000  # cp,cp,oh,ho
dihedral_coeff	14    0.00000    0.00000    1.50000    0.00000    0.00000    0.00000  # cp,cp,sf,cp
dihedral_coeff	15    0.00000    0.00000    1.50000    0.00000    0.00000    0.00000  # cp,cp,sf,o=
dihedral_coeff	16    0.00000    0.00000    1.87690    0.00000    0.00000    0.00000  # hc,cp,cp,hc
dihedral_coeff	17    0.00000    0.00000    1.72340    0.00000    0.00000    0.00000  # hc,cp,cp,oc
dihedral_coeff	18    0.00000    0.00000    1.72340    0.00000    0.00000    0.00000  # hc,cp,cp,oh
dihedral_coeff	19    0.00000    0.00000    3.00000    0.00000    0.00000    0.00000  # hc,cp,cp,sf

# MiddleBondTorsion Coeffs

dihedral_coeff	 1 mbt  -14.87900   -3.65810   -0.31380    1.53000  # c,c,c,hc
dihedral_coeff	 2 mbt    0.00000    0.00000    0.00000    1.50100  # c,c,cp,cp
dihedral_coeff	 3 mbt    0.00000    9.17920    0.00000    1.41700  # c,cp,cp,cp
dihedral_coeff	 4 mbt    0.00000    3.94210    0.00000    1.41700  # c,cp,cp,hc
dihedral_coeff	 5 mbt    0.00000    0.00000    0.00000    1.53000  # cp,c,c,hc
dihedral_coeff	 6 mbt    0.00000    0.00000    0.00000    1.50100  # cp,c,cp,cp
dihedral_coeff	 7 mbt   27.59890   -2.31200    0.00000    1.41700  # cp,cp,cp,cp
dihedral_coeff	 8 mbt    0.00000   -1.15210    0.00000    1.41700  # cp,cp,cp,hc
dihedral_coeff	 9 mbt    0.00000    4.82550    0.00000    1.41700  # cp,cp,cp,oc
dihedral_coeff	10 mbt    0.00000    4.82550    0.00000    1.41700  # cp,cp,cp,oh
dihedral_coeff	11 mbt    0.00000    0.00000    0.00000    1.41700  # cp,cp,cp,sf
dihedral_coeff	12 mbt    0.00000    0.00000    0.00000    1.37680  # cp,cp,oc,cp
dihedral_coeff	13 mbt    1.15800    3.26970    3.51320    1.37680  # cp,cp,oh,ho
dihedral_coeff	14 mbt    0.00000    0.00000    0.00000    1.72000  # cp,cp,sf,cp
dihedral_coeff	15 mbt    0.00000    0.00000    0.00000    1.72000  # cp,cp,sf,o=
dihedral_coeff	16 mbt    0.00000    4.82280    0.00000    1.41700  # hc,cp,cp,hc
dihedral_coeff	17 mbt    0.00000    5.54320    0.00000    1.41700  # hc,cp,cp,oc
dihedral_coeff	18 mbt    0.00000    5.54320    0.00000    1.41700  # hc,cp,cp,oh
dihedral_coeff	19 mbt    0.00000    0.00000    0.00000    1.41700  # hc,cp,cp,sf

# EndBondTorsion Coeffs

dihedral_coeff	 1 ebt    0.24860    0.24220   -0.09250    0.08140    0.05910    0.22190    1.53000    1.10100  # c,c,c,hc
dihedral_coeff	 2 ebt    0.00000    0.00000    0.00000    0.00000    0.00000    0.00000    1.53000    1.41700  # c,c,cp,cp
dihedral_coeff	 3 ebt    0.00000    0.24210    0.00000    0.00000   -0.69180    0.00000    1.50100    1.41700  # c,cp,cp,cp
dihedral_coeff	 4 ebt    0.00000   -1.79700    0.00000    0.00000   -0.48790    0.00000    1.50100    1.09820  # c,cp,cp,hc
dihedral_coeff	 5 ebt    0.00000    0.00000    0.00000    0.00000    0.00000    0.00000    1.50100    1.10100  # cp,c,c,hc
dihedral_coeff	 6 ebt    0.00000    0.00000    0.00000    0.00000    0.00000    0.00000    1.50100    1.41700  # cp,c,cp,cp
dihedral_coeff	 7 ebt   -0.11850    6.32040    0.00000   -0.11850    6.32040    0.00000    1.41700    1.41700  # cp,cp,cp,cp
dihedral_coeff	 8 ebt    0.00000   -6.89580    0.00000    0.00000   -0.46690    0.00000    1.41700    1.09820  # cp,cp,cp,hc
dihedral_coeff	 9 ebt    0.00000    0.26550    0.00000    0.00000    4.89050    0.00000    1.41700    1.37680  # cp,cp,cp,oc
dihedral_coeff	10 ebt    0.00000    0.26550    0.00000    0.00000    4.89050    0.00000    1.41700    1.37680  # cp,cp,cp,oh
dihedral_coeff	11 ebt    0.00000    0.00000    0.00000    0.00000    0.00000    0.00000    1.41700    1.72000  # cp,cp,cp,sf
dihedral_coeff	12 ebt    0.00000    0.00000    0.00000    0.00000    0.00000    0.00000    1.41700    1.37680  # cp,cp,oc,cp
dihedral_coeff	13 ebt    0.90000   -1.34560    1.19000    3.41320    0.58730   -0.13230    1.41700    0.96500  # cp,cp,oh,ho
dihedral_coeff	14 ebt    0.00000    0.00000    0.00000    0.00000    0.00000    0.00000    1.41700    1.72000  # cp,cp,sf,cp
dihedral_coeff	15 ebt    0.00000    0.00000    0.00000    0.00000    0.00000    0.00000    1.41700    1.43080  # cp,cp,sf,o=
dihedral_coeff	16 ebt    0.00000   -0.68900    0.00000    0.00000   -0.68900    0.00000    1.09820    1.09820  # hc,cp,cp,hc
dihedral_coeff	17 ebt    0.00000   -1.58670    0.00000    0.00000    4.26410    0.00000    1.09820    1.37680  # hc,cp,cp,oc
dihedral_coeff	18 ebt    0.00000   -1.58670    0.00000    0.00000    4.26410    0.00000    1.09820    1.37680  # hc,cp,cp,oh
dihedral_coeff	19 ebt    0.00000    0.00000    0.00000    0.00000    0.00000    0.00000    1.09820    1.72000  # hc,cp,cp,sf

# AngleTorsion Coeffs

dihedral_coeff	 1 at   -0.24540    0.00000   -0.11360    0.31130    0.45160   -0.19880  112.67000  110.77000  # c,c,c,hc
dihedral_coeff	 2 at    0.00000    0.00000    0.00000    0.00000    0.00000    0.00000  108.40000  120.05000  # c,c,cp,cp
dihedral_coeff	 3 at    0.00000   -4.46830    0.00000    0.00000    3.89870    0.00000  120.05000  118.90000  # c,cp,cp,cp
dihedral_coeff	 4 at    0.00000   -0.12420    0.00000    0.00000    3.46010    0.00000  120.05000  117.94000  # c,cp,cp,hc
dihedral_coeff	 5 at    0.00000    0.00000    0.00000    0.00000    0.00000    0.00000  108.40000  110.77000  # cp,c,c,hc
dihedral_coeff	 6 at    0.00000    0.00000    0.00000    0.00000    0.00000    0.00000  111.00000  120.05000  # cp,c,cp,cp
dihedral_coeff	 7 at    1.97670    1.02390    0.00000    1.97670    1.02390    0.00000  118.90000  118.90000  # cp,cp,cp,cp
dihedral_coeff	 8 at    0.00000    2.50140    0.00000    0.00000    2.71470    0.00000  118.90000  117.94000  # cp,cp,cp,hc
dihedral_coeff	 9 at    0.00000   10.01550    0.00000    0.00000    1.74040    0.00000  118.90000  123.42000  # cp,cp,cp,oc
dihedral_coeff	10 at    0.00000   10.01550    0.00000    0.00000    1.74040    0.00000  118.90000  123.42000  # cp,cp,cp,oh
dihedral_coeff	11 at    0.00000    0.00000    0.00000    0.00000    0.00000    0.00000  118.90000  120.00000  # cp,cp,cp,sf
dihedral_coeff	12 at    0.00000    0.00000    0.00000    0.00000    0.00000    0.00000  123.42000  109.50000  # cp,cp,oc,cp
dihedral_coeff	13 at   -5.13600   -1.01220    0.00000    4.68520    0.02300   -0.59800  123.42000  108.19000  # cp,cp,oh,ho
dihedral_coeff	14 at    0.00000    0.00000    0.00000    0.00000    0.00000    0.00000  120.00000  102.00000  # cp,cp,sf,cp
dihedral_coeff	15 at    0.00000    0.00000    0.00000    0.00000    0.00000    0.00000  120.00000  113.10000  # cp,cp,sf,o=
dihedral_coeff	16 at    0.00000    2.45010    0.00000    0.00000    2.45010    0.00000  117.94000  117.94000  # hc,cp,cp,hc
dihedral_coeff	17 at    0.00000    1.87290    0.00000    0.00000    2.57060    0.00000  117.94000  123.42000  # hc,cp,cp,oc
dihedral_coeff	18 at    0.00000    1.87290    0.00000    0.00000    2.57060    0.00000  117.94000  123.42000  # hc,cp,cp,oh
dihedral_coeff	19 at    0.00000    0.00000    0.00000    0.00000    0.00000    0.00000  117.94000  120.00000  # hc,cp,cp,sf

# AngleAngleTorsion Coeffs

dihedral_coeff	 1 aat  -16.16400  112.67000  110.77000  # c,c,c,hc
dihedral_coeff	 2 aat    0.00000  108.40000  120.05000  # c,c,cp,cp
dihedral_coeff	 3 aat  -14.40970  120.05000  118.90000  # c,cp,cp,cp
dihedral_coeff	 4 aat    4.44440  120.05000  117.94000  # c,cp,cp,hc
dihedral_coeff	 5 aat    0.00000  108.40000  110.77000  # cp,c,c,hc
dihedral_coeff	 6 aat    0.00000  111.00000  120.05000  # cp,c,cp,cp
dihedral_coeff	 7 aat    0.00000  118.90000  118.90000  # cp,cp,cp,cp
dihedral_coeff	 8 aat   -4.81410  118.90000  117.94000  # cp,cp,cp,hc
dihedral_coeff	 9 aat  -21.02470  118.90000  123.42000  # cp,cp,cp,oc
dihedral_coeff	10 aat  -21.02470  118.90000  123.42000  # cp,cp,cp,oh
dihedral_coeff	11 aat    0.00000  118.90000  120.00000  # cp,cp,cp,sf
dihedral_coeff	12 aat    0.00000  123.42000  109.50000  # cp,cp,oc,cp
dihedral_coeff	13 aat   -4.60720  123.42000  108.19000  # cp,cp,oh,ho
dihedral_coeff	14 aat    0.00000  120.00000  102.00000  # cp,cp,sf,cp
dihedral_coeff	15 aat    0.00000  120.00000  113.10000  # cp,cp,sf,o=
dihedral_coeff	16 aat    0.35980  117.94000  117.94000  # hc,cp,cp,hc
dihedral_coeff	17 aat    4.22960  117.94000  123.42000  # hc,cp,cp,oc
dihedral_coeff	18 aat    4.22960  117.94000  123.42000  # hc,cp,cp,oh
dihedral_coeff	19 aat    0.00000  117.94000  120.00000  # hc,cp,cp,sf

# BondBond13 Coeffs

dihedral_coeff	 1 bb13    0.00000    1.53000    1.10100  # c,c,c,hc
dihedral_coeff	 2 bb13    0.00000    1.53000    1.41700  # c,c,cp,cp
dihedral_coeff	 3 bb13    2.50850    1.50100    1.41700  # c,cp,cp,cp
dihedral_coeff	 4 bb13    0.87430    1.50100    1.09820  # c,cp,cp,hc
dihedral_coeff	 5 bb13    0.00000    1.50100    1.10100  # cp,c,c,hc
dihedral_coeff	 6 bb13    0.00000    1.50100    1.41700  # cp,c,cp,cp
dihedral_coeff	 7 bb13   53.00000    1.41700    1.41700  # cp,cp,cp,cp
dihedral_coeff	 8 bb13   -6.27410    1.41700    1.09820  # cp,cp,cp,hc
dihedral_coeff	 9 bb13   -2.24360    1.41700    1.37680  # cp,cp,cp,oc
dihedral_coeff	10 bb13   -2.24360    1.41700    1.37680  # cp,cp,cp,oh
dihedral_coeff	11 bb13    0.00000    1.41700    1.72000  # cp,cp,cp,sf
dihedral_coeff	12 bb13    0.00000    1.41700    1.37680  # cp,cp,oc,cp
dihedral_coeff	13 bb13    1.15900    1.41700    0.96500  # cp,cp,oh,ho
dihedral_coeff	14 bb13    0.00000    1.41700    1.72000  # cp,cp,sf,cp
dihedral_coeff	15 bb13    0.00000    1.41700    1.43080  # cp,cp,sf,o=
dihedral_coeff	16 bb13   -1.70770    1.09820    1.09820  # hc,cp,cp,hc
dihedral_coeff	17 bb13    2.05170    1.09820    1.37680  # hc,cp,cp,oc
dihedral_coeff	18 bb13    2.05170    1.09820    1.37680  # hc,cp,cp,oh
dihedral_coeff	19 bb13    0.00000    1.09820    1.72000  # hc,cp,cp,sf

# Improper Coeffs

improper_coeff	 1    0.00000    0.00000  # c,c,c,cp
improper_coeff	 2    0.00000    0.00000  # c,c,cp,cp
improper_coeff	 3    0.00000    0.00000  # c,c,hc,hc
improper_coeff	 4    0.00000    0.00000  # c,hc,hc,hc
improper_coeff	 5    7.81530    0.00000  # cp,c,cp,cp
improper_coeff	 6    4.89120    0.00000  # cp,cp,cp,hc
improper_coeff	 7   13.04210    0.00000  # cp,cp,cp,oc
improper_coeff	 8   13.04210    0.00000  # cp,cp,cp,oh
improper_coeff	 9    0.00000    0.00000  # cp,cp,cp,sf
improper_coeff	10    0.00000    0.00000  # sf,cp,cp,o=
improper_coeff	11    0.00000    0.00000  # sf,cp,o=,o=

# AngleAngle Coeffs

improper_coeff	 1 aa    0.00000    0.00000    0.00000  112.67000  108.40000  108.40000  # c,c,c,cp
improper_coeff	 2 aa    0.00000    0.00000    0.00000  108.40000  108.40000  111.00000  # c,c,cp,cp
improper_coeff	 3 aa    0.27380   -0.48250    0.27380  110.77000  110.77000  107.66000  # c,c,hc,hc
improper_coeff	 4 aa   -0.31570   -0.31570   -0.31570  107.66000  107.66000  107.66000  # c,hc,hc,hc
improper_coeff	 5 aa    0.00000    0.00000    0.00000  120.05000  120.05000  118.90000  # cp,c,cp,cp
improper_coeff	 6 aa    0.00000    0.00000    0.00000  118.90000  117.94000  117.94000  # cp,cp,cp,hc
improper_coeff	 7 aa    0.00000    0.00000    0.00000  118.90000  123.42000  123.42000  # cp,cp,cp,oc
improper_coeff	 8 aa    0.00000    0.00000    0.00000  118.90000  123.42000  123.42000  # cp,cp,cp,oh
improper_coeff	 9 aa    0.00000    0.00000    0.00000  118.90000  120.00000  120.00000  # cp,cp,cp,sf
improper_coeff	10 aa    0.00000    0.00000    0.00000  102.00000  113.10000  113.10000  # sf,cp,cp,o=
improper_coeff	11 aa    0.00000    0.00000    0.00000  113.10000  113.10000  119.32900  # sf,cp,o=,o=

thermo_style custom step time temp press enthalpy etotal ke pe ebond eangle edihed eimp evdwl ecoul elong etail vol lx ly lz density pxx pyy pzz
thermo_modify flush yes
thermo 100
velocity all create 300.0 11002 mom yes rot yes dist gaussian
timestep 1.0
fix npt_bm all npt temp 300.0 300.0 100 iso -500 -500 1000.0
run 500000
PPPM Kokkos initialization ...
  using 12-bit tables for long-range coulomb
  G vector (1/distance) = 0.29796641
  grid = 32 32 32
  stencil order = 5
  estimated absolute RMS force accuracy = 0.00035458884
  estimated relative force accuracy = 1.0678338e-06
  using double precision cuFFT
  3d grid and FFT values/proc = 59319 32768
Generated 28 of 28 mixed pair_coeff terms from sixthpower/sixthpower mixing rule
Neighbor list info ...
  update: every = 1 steps, delay = 0 steps, check = yes
  max neighbors/atom: 4000, page size: 100000
  master list distance cutoff = 11.5
  ghost atom cutoff = 11.5
  binsize = 11.5, bins = 5 5 5
  1 neighbor lists, perpetual/occasional/extra = 1 0 0
  (1) pair lj/class2/coul/long/kk, perpetual
      attributes: full, newton off, kokkos_device
      pair build: full/bin/kk/device
      stencil: full/bin/3d
      bin: kk/device
Per MPI rank memory allocation (min/avg/max) = 54.12 | 54.12 | 54.12 Mbytes
   Step          Time           Temp          Press         Enthalpy        TotEng         KinEng         PotEng         E_bond        E_angle        E_dihed        E_impro         E_vdwl         E_coul         E_long         E_tail         Volume           Lx             Ly             Lz          Density          Pxx            Pyy            Pzz      
         0   0              300           -1484.9345      17256.773      19406.858      7739.6733      11667.185      3856.4357      4079.8998      3140.0294      313.81224     -480.24706      6446.1627     -5688.9081     -704.92468      99282.45       46.304603      46.304603      46.304603      1.1845299     -1353.7606     -2435.1418     -665.901      
       100   100            299.75982      277.73244      19813.652      19410.799      7733.477       11677.322      4002.2655      4040.2069      3023.1545      303.64554     -438.37417      6433.7616     -5687.3378     -703.67387      99458.929      46.332023      46.332023      46.332023      1.1824281      1439.1426      80.831821     -686.77709    
       200   200            300.15703     -1421.1389      17262.026      19331.942      7743.7244      11588.218      3950.0487      4051.7648      3053.8362      294.36536     -516.05557      6441.6479     -5687.3895     -700.76892      99871.223      46.395956      46.395956      46.395956      1.1775467     -2879.5407     -1073.2262     -310.64995    
       300   300            294.79919     -112.88195      19033.771      19198.621      7605.498       11593.123      3942.3468      4015.8699      2995.2101      306.49359     -425.67796      6446.387      -5687.5065     -698.92096      100135.29      46.43681       46.43681       46.43681       1.1744415     -368.97728     -482.78098      513.11242    
       400   400            299.77917     -878.60831      17996.054      19281.404      7733.9762      11547.428      3876.9977      4027.1315      3040.8203      293.352       -446.47037      6441.6165     -5686.02       -697.694        100311.38      46.464015      46.464015      46.464015      1.1723797     -306.70453     -1307.3141     -1021.8063    
       500   500            302.92553     -112.57661      19251.259      19415.789      7815.1488      11600.64       3975.8845      4039.2282      2961.0171      301.05055     -429.26013      6440.8239     -5688.1042     -698.3862       100211.96      46.44866       46.44866       46.44866       1.1735429     -1115.6943      726.40894      51.555502    
       600   600            299.35778     -435.79093      18795.447      19432.11       7723.1048      11709.005      3934.4101      4061.0824      3081.4299      301.79753     -414.49645      6434.03       -5689.2484     -698.65001      100174.12      46.442812      46.442812      46.442812      1.1739862     -14.237708      50.092078     -1343.2272    
       700   700            298.87245     -1025.4863      17929.597      19426.987      7710.5837      11716.404      3923.3806      4094.8298      3095.3032      308.25639     -464.86481      6446.7598     -5687.2615     -699.01393      100121.97      46.434751      46.434751      46.434751      1.1745977     -930.80985     -1185.3333     -960.3157     
       800   800            296.67389     -1550.8954      17115.791      19377.916      7653.8632      11724.053      3926.2633      4078.1771      3130.6841      310.8265      -470.50048      6440.7038     -5692.1012     -699.77252      100013.43      46.417966      46.417966      46.417966      1.1758724     -1627.5096     -821.34168     -2203.8349    
       900   900            298.09545      465.00472      19941.622      19263.773      7690.5379      11573.235      3934.6899      3988.8439      3038.6405      302.48743     -430.38252      6429.7103     -5690.7543     -700.18988      99953.815      46.408742      46.408742      46.408742      1.1765737     -117.66754      1581.8589     -69.177162    
      1000   1000           298.86713     -409.50686      18609.445      19206.538      7710.4466      11496.091      3987.5429      3941.5229      2953.0183      291.76391     -428.3876       6442.0393     -5691.4087     -700.01977      99978.105      46.412501      46.412501      46.412501      1.1762878     -1151.6557      1413.0078     -1489.8727    
      1100   1100           297.51737      374.8716       19889.19       19342.099      7675.6242      11666.475      4028.9009      4052.7977      2966.4172      305.03211     -442.44375      6446.6387     -5690.8679     -699.38103      100069.41      46.426626      46.426626      46.426626      1.1752145      219.93913      162.71156      741.96412    
      1200   1200           300.34644     -749.04216      18366.227      19461.528      7748.6112      11712.916      4022.5737      4030.5749      3098.7163      301.34529     -487.79618      6436.8513     -5689.3489     -698.01367      100265.44      46.456921      46.456921      46.456921      1.1729169     -92.750568     -681.09986     -1473.2761    
      1300   1300           302.13441     -1560.4854      17177.118      19462.648      7794.7387      11667.909      3909.8605      4122.5873      3045.8708      296.45274     -454.73532      6437.1525     -5689.2793     -696.88946      100427.19      46.481889      46.481889      46.481889      1.1710278     -371.60277     -1930.9963     -2378.8571    
      1400   1400           296.01632     -916.80932      18040.978      19384.589      7636.8987      11747.691      3950.3552      4073.3616      3085.0653      306.84197     -413.74858      6437.1081     -5691.293      -696.46023      100489.08      46.491436      46.491436      46.491436      1.1703065     -934.00243     -1215.7503     -600.67523    
      1500   1500           295.65228     -902.98961      17963.999      19286.617      7627.5069      11659.11       3890.3253      4045.9956      3074.4175      307.85076     -411.1246       6438.9398     -5687.2945     -696.85049      100432.81      46.482755      46.482755      46.482755      1.1709623     -549.429       -1896.8886     -262.65128    
      1600   1600           298.39116      423.06816      19958.014      19339.741      7698.1671      11641.574      3938.0646      4025.8529      2989.0645      306.11106     -361.19057      6432.9885     -5689.3166     -698.42719      100206.08      46.447751      46.447751      46.447751      1.1736117      1355.3507     -574.57401      488.42779    
      1700   1700           300.67612     -784.58415      18391.78       19536.632      7757.1166      11779.515      3952.3561      4119.9679      3060.1004      311.10772     -418.89664      6441.9668     -5687.087      -699.48999      100053.83      46.424215      46.424215      46.424215      1.1753976     -2206.3638      656.6193      -804.00794    
      1800   1800           303.40878      217.73711      19820.823      19503.21       7827.616       11675.594      3982.277       4056.3028      2981.0376      310.1866      -392.94941      6428.7636     -5690.0242     -699.72054      100020.86      46.419115      46.419115      46.419115      1.175785      -166.2599      -96.674612      916.14583    
      1900   1900           302.43121     -903.85344      18055.476      19375.02       7802.3959      11572.624      3910.8288      4019.9588      3005.3832      302.00511     -408.32066      6432.62       -5689.8509     -699.14142      100103.71      46.431929      46.431929      46.431929      1.1748119     -810.2559      -1444.1785     -457.12591    
      2000   2000           297.7341      -825.30969      18119.636      19327.221      7681.2155      11646.005      3984.7072      3965.3363      3064.0543      314.24987     -435.21552      6441.9782     -5689.105      -697.57409      100328.63      46.466678      46.466678      46.466678      1.1721782      623.83548     -1477.3564     -1622.4082    
      2100   2100           297.0576       49.841487      19429.703      19356.695      7663.7627      11692.933      3946.6924      4068.3091      3044.8607      310.43978     -436.00663      6447.1313     -5688.4942     -696.80633      100439.17      46.483737      46.483737      46.483737      1.1708881      71.942879      530.04503     -452.46344    
      2200   2200           297.89351     -1553.4457      17241.392      19517.408      7685.3282      11832.08       4036.7267      4037.3185      3113.0325      313.11513     -403.54451      6425.7212     -5690.2897     -696.64561      100462.34      46.487312      46.487312      46.487312      1.170618      -1224.9754     -1107.9338     -2327.4278    
      2300   2300           304.73605     -484.79845      18901.315      19611.633      7861.8582      11749.775      4002.1536      4116.0331      3031.43        310.14485     -463.31994      6440.6974     -5687.3637     -696.62486      100465.33      46.487773      46.487773      46.487773      1.1705832     -272.17723     -496.80139     -685.41673    
      2400   2400           302.59196     -437.13977      18872.406      19513.269      7806.5429      11706.726      3922.747       4030.6969      3079.3994      305.20731     -386.19836      6441.6302     -5686.7567     -696.21964      100523.81      46.496791      46.496791      46.496791      1.1699023     -1601.2127      103.02494      186.76841    
      2500   2500           298.84196      247.6958       19793.391      19430.595      7709.7971      11720.798      3959.7762      4085.2412      3047.1921      308.32035     -446.98496      6452.8384     -5685.5852     -696.86378      100430.89      46.48246       46.48246       46.48246       1.1709846     -350.30065      332.93111      760.45696    
      2600   2600           301.0583      -1169.3933      17679.673      19392.312      7766.9762      11625.336      3897.3313      4029.9981      3094.3857      303.76798     -458.19828      6445.5951     -5687.5439     -696.92444      100422.15      46.481111      46.481111      46.481111      1.1710866     -858.5781      -1256.2163     -1393.3855    
      2700   2700           298.96861      142.92657      19544.96       19335.875      7713.0646      11622.81       3869.5515      4070.9928      3011.6504      302.5979      -379.75061      6437.6879     -5689.9198     -697.71934      100307.74      46.463453      46.463453      46.463453      1.1724223     -1618.415       369.8521       1677.3426    
      2800   2800           294.66801     -1945.3565      16330.689      19177.872      7602.1137      11575.758      3878.0736      3997.2226      3089.0789      303.97165     -447.34809      6439.5393     -5684.7799     -697.3888       100355.28      46.470793      46.470793      46.470793      1.1718669     -3704.2321     -512.85673     -1618.9807    
      2900   2900           296.39192     -1207.4457      17395.452      19162.27       7646.5887      11515.681      3852.5552      3979.8405      3073.7087      297.84324     -440.86919      6437.3446     -5684.7419     -697.53647      100334.04      46.467513      46.467513      46.467513      1.172115      -857.4685      -1003.6117     -1761.2569    
      3000   3000           297.97031     -1054.1293      17795.388      19338.409      7687.3096      11651.1        3918.7409      4098.2866      3011.4287      308.98396     -453.07897      6450.1696     -5683.4309     -697.28951      100369.57      46.472998      46.472998      46.472998      1.1717        -1185.0895     -1157.033      -820.26542    
      3100   3100           301.58514     -1299.8882      17497.808      19400.142      7780.5682      11619.574      3949.8254      4090.1836      2974.1732      303.47689     -458.11811      6443.4704     -5683.4371     -697.44544      100347.13      46.469534      46.469534      46.469534      1.171962      -2601.8616     -528.62293     -769.18008    
      3200   3200           298.82023      120.54988      19617.786      19441.525      7709.2366      11732.289      3906.7235      4034.4259      3080.4163      305.16522     -362.80984      6450.9124     -5682.5446     -698.07742      100256.29      46.455507      46.455507      46.455507      1.173024      -343.98115      496.44298      209.18781    
      3300   3300           306.06801     -1087.1457      17896.652      19486.539      7896.2214      11590.317      3992.536       4026.6917      2951.468       288.97175     -433.38391      6447.6628     -5683.6292     -697.93119      100277.29      46.458751      46.458751      46.458751      1.1727783     -2003.4319     -794.6233      -463.38174    
      3400   3400           300.2593       779.50538      20624.738      19485.977      7746.363       11739.614      4060.2547      4046.6717      2955.8047      310.98652     -391.66723      6442.4045     -5684.8411     -698.67903      100169.96      46.442169      46.442169      46.442169      1.1740349      1545.2132      356.99076      436.31222    
      3500   3500           299.07935      829.64501      20596.105      19384.016      7715.9214      11668.094      3953.822       4058.2647      2966.8637      295.06869     -367.45337      6447.7515     -5686.2228     -698.63248      100176.63      46.443201      46.443201      46.443201      1.1739567      385.55724      880.40128      1222.9765    
      3600   3600           296.57908     -295.42762      18850.111      19282.709      7651.4172      11631.292      3981.4177      3964.7273      3063.3585      297.15558     -422.03347      6435.0233     -5688.3566     -697.03869      100405.69      46.478572      46.478572      46.478572      1.1712786     -638.8121      -433.98493      186.51419    
      3700   3700           300.10615      157.65542      19536.72       19305.628      7742.4118      11563.217      3917.577       4038.7016      2959.836       306.86663     -420.64711      6447.0913     -5686.2089     -696.33215      100507.57      46.494286      46.494286      46.494286      1.1700913     -17.236127      1101.9813     -611.77887    
      3800   3800           297.89        -2137.8608      16335          19471.45       7685.2376      11786.212      3915.0173      4082.0247      3174.4672      315.62669     -441.75656      6429.8293     -5688.9962     -695.71628      100596.54      46.508002      46.508002      46.508002      1.1690564     -2617.1706     -1371.53       -2424.8818    
      3900   3900           303.69913     -862.32771      18289.413      19552.224      7835.1068      11717.117      3985.7011      4106.7446      3007.0784      306.74046     -447.9389       6445.1506     -5686.3588     -696.98749      100413.06      46.47971       46.47971       46.47971       1.1711925     -2109.2231      108.75791     -586.51794    
      4000   4000           302.17563     -719.81673      18442.045      19491.931      7795.8022      11696.129      3868.1797      4146.941       3118.4262      322.29381     -509.44078      6437.1153     -5687.3863     -699.79513      100010.2       46.417466      46.417466      46.417466      1.1759104     -1817.2009     -109.34589     -232.90338    
      4100   4100           300.39699     -1467.0153      17265.33       19397.881      7749.9152      11647.966      3939.4361      4047.0864      3084.959       306.86617     -483.59148      6439.5393     -5686.3295     -702.14403      99675.632      46.365648      46.365648      46.365648      1.1798574     -2086.8244     -1503.2199     -811.00179    
      4200   4200           300.00664      632.77029      20256.331      19338.875      7739.8446      11599.031      3969.3532      4057.2089      2979.6296      304.11397     -457.89618      6434.919      -5688.2977     -703.96681      99417.542      46.325595      46.325595      46.325595      1.1829203      1355.3654      459.49289      83.452611    
      4300   4300           298.84882     -1226.4957      17552.084      19330.351      7709.9741      11620.377      3889.8151      4019.1066      3121.1753      305.285       -458.22634      6432.3262     -5689.105      -703.97993      99415.689      46.325307      46.325307      46.325307      1.1829424     -2399.5439      172.87561     -1452.8189    
      4400   4400           301.99707     -131.0196       19235.563      19425.927      7791.1956      11634.731      3952.3796      4052.8054      3042.1912      311.15351     -473.15469      6440.4052     -5691.0491     -702.49477      99625.865      46.35793       46.35793       46.35793       1.1804468     -1699.0011      127.49856      1178.4438    
      4500   4500           305.15769     -145.99993      19350.549      19563.482      7872.7362      11690.746      3956.3106      4031.945       3089.2368      314.53497     -450.01676      6437.0969     -5688.3612     -699.84188      100003.52      46.416433      46.416433      46.416433      1.1759889     -537.02501      130.63335     -31.608135    
      4600   4600           302.2811      -2272.4159      16179.098      19501.131      7798.5232      11702.607      3916.2915      4104.8824      3143.8291      295.17169     -519.79836      6448.8688     -5686.6378     -698.19221      100239.8       46.452961      46.452961      46.452961      1.1732169     -914.3123      -4281.2243     -1621.7112    
      4700   4700           299.98205     -248.7711       18992.831      19356.266      7739.2102      11617.056      3965.9661      4025.8308      3033.9177      301.46851     -463.17181      6439.3282     -5686.2835     -698.65734      100173.07      46.44265       46.44265       46.44265       1.1739985     -870.17581     -6.4289659      130.29147    
      4800   4800           299.02358     -783.41076      18184.148      19327.038      7714.4826      11612.555      3832.2053      4072.0571      3094.2478      302.58998     -439.41207      6437.3085     -5686.4416     -699.64246      100032.02      46.420842      46.420842      46.420842      1.1756538     -1514.7563     -1010.4802      175.0043     
      4900   4900           299.8974      -112.48788      19238.083      19402.125      7737.0264      11665.098      3983.8443      4095.9343      3007.9165      304.00175     -482.73257      6444.7437     -5688.6095     -699.90879      99993.958      46.414954      46.414954      46.414954      1.1761014     -712.93961     -305.75539      681.23137    
      5000   5000           300.44758     -1090.0819      17921.806      19510.753      7751.2204      11759.532      4012.5185      4098.2589      3051.4186      307.14727     -465.00967      6442.0355     -5686.8369     -700.23051      99948.016      46.407844      46.407844      46.407844      1.176642      -207.82675     -1736.4255     -1325.9935    
      5100   5100           299.16183     -386.95366      18929.116      19492.456      7718.0495      11774.407      3929.8616      4038.466       3145.4123      314.36025     -384.38887      6422.764      -5692.0686     -701.09867      99824.252      46.388681      46.388681      46.388681      1.1781008     -1517.7864      483.24619     -126.32075    
      5200   5200           298.46404      153.61997      19500.015      19276.408      7700.0472      11576.361      3902.7802      4084.8496      3000.5084      293.67513     -461.52578      6445.0402     -5688.9672     -701.21745      99807.342      46.386061      46.386061      46.386061      1.1783004      340.32733      414.08425     -293.55167    
      5300   5300           298.10245     -1792.7663      16641.659      19252.192      7690.7185      11561.473      3863.7849      4038.8403      3078.2873      298.32153     -468.02467      6440.8359     -5690.5722     -700.94766      99845.757      46.392012      46.392012      46.392012      1.177847      -2997.2278     -1134.6958     -1246.3754    
      5400   5400           301.20165     -1271.8377      17531.398      19384.165      7770.6745      11613.49       3896.6007      4034.9185      3077.899       311.82739     -448.56992      6431.1758     -5690.3615     -700.65158      99887.95       46.398546      46.398546      46.398546      1.1773495     -863.99007     -2026.0442     -925.47875    
      5500   5500           304.25746     -1213.7356      17697.739      19466.897      7849.5113      11617.386      3936.3738      4057.704       3023.3955      299.84382     -453.65711      6440.8331     -5687.1075     -700.24283      99946.257      46.407572      46.407572      46.407572      1.1766627     -1071.0632     -2731.3161      161.17239    
      5600   5600           300.63683      154.30822      19636.574      19411.498      7756.1027      11655.396      3955.1869      4070.7995      3019.7271      300.79153     -449.16317      6445.0625     -5687.0088     -699.76422      100014.62      46.41815       46.41815       46.41815       1.1758584     -416.73592     -405.22085      1284.8814    
      5700   5700           301.40958      155.16744      19563.333      19336.777      7776.0389      11560.739      3843.5299      4005.1319      3045.2587      314.56194     -409.30194      6448.3545     -5686.7965     -699.06258      100115         46.433674      46.433674      46.433674      1.1746794     -381.63522     -1033.5906      1880.7282    
      5800   5800           295.81224     -1248.1058      17421.696      19246.715      7631.6336      11615.081      3911.0453      4076.7344      3039.3077      302.17405     -473.41036      6445.9014     -5686.6715     -698.03192      100262.82      46.456516      46.456516      46.456516      1.1729475     -1655.8282     -1593.5482     -494.9409     
      5900   5900           294.69158     -1553.9727      16872.675      19145.134      7602.722       11542.412      3899.0932      3999.8497      3058.2567      302.99283     -476.78256      6446.3053     -5687.3034     -697.97279      100271.31      46.457828      46.457828      46.457828      1.1728482     -1800.6144     -1286.6009     -1574.7026    
      6000   6000           297.68314     -634.49998      18319.627      19247.14       7679.9008      11567.239      3849.8435      4056.4067      3090.064       301.64744     -495.81348      6451.1836     -5686.0925     -698.23644      100233.45      46.45198       46.45198       46.45198       1.1732912     -1998.4474      1.863637       93.083858    
      6100   6100           302.09153      125.74069      19580.159      19396.695      7793.6326      11603.063      3871.2823      4024.4839      3058.0234      303.06611     -405.21447      6439.02       -5687.5987     -699.54607      100045.81      46.422974      46.422974      46.422974      1.1754919     -358.38187      497.6697       237.93423    
      6200   6200           299.37113     -865.88989      18175.418      19438.337      7723.4492      11714.888      3957.2525      4126.0283      3011.3577      300.92095     -432.70942      6441.163      -5689.1249     -699.80703      100008.5       46.417203      46.417203      46.417203      1.1759304     -1413.9462      111.10767     -1294.8311    
      6300   6300           301.7022      -130.52423      19265.597      19456.033      7783.5882      11672.444      3924.974       4059.1411      3019.3614      315.06229     -394.5678       6439.0675     -5690.594      -699.57594      100041.53      46.422314      46.422314      46.422314      1.175542      -309.9477       171.34853     -252.97352    
      6400   6400           300.61492     -603.61319      18564.155      19445.464      7755.5375      11689.927      4020.1817      4035.0109      3033.6798      297.75973     -459.39676      6450.1536     -5687.4625     -699.07163      100113.7       46.433474      46.433474      46.433474      1.1746946     -3077.9564      800.10788      467.00899    
      6500   6500           298.43621     -497.22259      18600.018      19325.19       7699.3292      11625.861      3877.2988      4132.8508      3057.0408      300.46307     -494.79996      6443.001      -5689.9934     -699.843        100003.36      46.416408      46.416408      46.416408      1.1759908     -1033.8204     -584.76576      126.91839    
      6600   6600           297.84931     -1100.6671      17646.693      19250.575      7684.1878      11566.387      3895.13        4101.1537      3011.4895      302.80282     -509.27334      6451.6029     -5686.5188     -700.44636      99917.216      46.403076      46.403076      46.403076      1.1770047     -1172.0232     -334.04638     -1795.9316    
      6700   6700           300.69008      36.756072      19363.035      19309.559      7757.4767      11552.083      3886.4075      4023.628       3014.4562      317.37475     -451.90658      6448.5207     -5686.3977     -701.56291      99758.195      46.378446      46.378446      46.378446      1.1788809     -1342.2996      1719.4594     -266.89162    
      6800   6800           301.98981     -630.71156      18566.846      19484.675      7791.0082      11693.667      3933.698       4115.0044      3086.3614      297.02745     -503.60526      6451.3024     -5686.1217     -701.39109      99782.633      46.382233      46.382233      46.382233      1.1785922      285.00603     -1497.3391     -679.80164    
      6900   6900           303.43542     -243.99764      19133.587      19488.094      7828.3034      11659.791      3976.0298      3941.9662      3069.1815      304.3337      -383.59416      6440.2961     -5688.4221     -702.50795      99623.996      46.35764       46.35764       46.35764       1.1804689      612.19027     -486.71674     -857.46645    
      7000   7000           304.78537     -950.85564      18029.133      19411.92       7863.1307      11548.789      3880.7412      4054.5351      3004.3472      299.12007     -442.28878      6438.0136     -5685.6792     -701.85981      99715.996      46.371906      46.371906      46.371906      1.1793798     -314.34673     -1850.8592     -687.36096    
      7100   7100           303.42765      108.55891      19491.048      19333.048      7828.1029      11504.945      3956.2615      4027.4128      2905.9714      301.78911     -450.69351      6448.9836     -5684.7795     -701.29263      99796.642      46.384404      46.384404      46.384404      1.1784267      811.73296     -591.40377      105.34755    
      7200   7200           299.49071     -780.98376      18173.722      19314.149      7726.5341      11587.615      3926.3276      3990.946       3014.8026      304.10838     -396.6138       6435.1218     -5687.0779     -698.98126      100126.65      46.435475      46.435475      46.435475      1.1745428     -2194.4279     -51.206214     -97.317219    
      7300   7300           297.97238     -350.21348      18866.953      19380.247      7687.363       11692.884      3925.5457      4073.1155      3088.7637      300.52539     -454.93789      6448.249      -5688.3776     -696.39814      100498.04      46.492818      46.492818      46.492818      1.1702022     -379.19853     -680.09722      8.6553054    
      7400   7400           301.76021     -810.49153      18254.675      19445.435      7785.0849      11660.35       3967.7658      4056.0377      3016.3905      294.08616     -418.57506      6433.5276     -5688.8829     -694.7287       100739.54      46.530029      46.530029      46.530029      1.1673969     -636.86121     -1493.9881     -300.62528    
      7500   7500           299.90703     -1573.3472      17138.565      19449.409      7737.2747      11712.134      3895.7846      4131.1052      3046.54        305.69335     -423.36043      6443.1777     -5686.8062     -694.93636      100709.44      46.525394      46.525394      46.525394      1.1677459     -2070.0005     -419.68682     -2230.3543    
      7600   7600           298.9653      -218.36659      19104.009      19424.332      7712.9792      11711.352      3998.8606      4018.5772      3040.2563      295.00691     -390.49085      6438.5273     -5689.3849     -695.80816      100583.25      46.505954      46.505954      46.505954      1.1692108     -300.48348      551.91903     -906.53532    
      7700   7700           296.81646     -481.59443      18566.464      19272.205      7657.5413      11614.664      3926.3827      4006.64        3061.4214      302.07525     -443.57474      6447.846      -5686.1269     -696.50993      100481.91      46.49033       46.49033       46.49033       1.17039       -1300.9819     -129.13243     -14.668996    
      7800   7800           295.08858     -2278.7914      15913.256      19248.077      7612.9641      11635.113      3923.386       3982.3881      3149.689       298.92422     -470.72807      6437.5891     -5686.1358     -697.46611      100344.16      46.469075      46.469075      46.469075      1.1719968     -3005.6893     -1964.4198     -1866.265     
      7900   7900           300.84369      1800.2752      22009.747      19379.653      7761.4396      11618.214      3967.3158      4061.0334      2910.5645      296.56122     -371.48421      6442.223      -5687.9999     -698.64848      100174.34      46.442846      46.442846      46.442846      1.1739836      1849.9538      1627.5571      1923.3147    
      8000   8000           302.52882     -700.98338      18446.814      19471.871      7804.9141      11666.957      3955.2942      4102.2751      3005.4336      294.47726     -446.18605      6444.4438     -5688.7812     -697.99305      100268.4       46.457379      46.457379      46.457379      1.1728822     -1924.0111      912.67135     -1091.6103    
      8100   8100           300.762       -683.61309      18480.207      19479.307      7759.3322      11719.975      3979.227       4039.6034      3069.1856      303.55343     -420.52771      6436.5122     -5687.5789     -698.38125      100212.67      46.448769      46.448769      46.448769      1.1735345     -1055.1247     -254.01459     -741.69999    
      8200   8200           298.05709      568.43223      20215.023      19385.082      7689.5483      11695.534      3976.809       4051.5339      2996.4223      305.83739     -396.71993      6448.2032     -5686.5522     -699.07277      100113.54      46.433449      46.433449      46.433449      1.1746965     -1130.4952      1681.3947      1154.3972    
      8300   8300           295.32729     -814.23475      18056.729      19246.816      7619.1224      11627.694      3931.1515      3973.4889      3120.0861      315.67001     -473.60876      6448.4315     -5687.5252     -698.33176      100219.77      46.449866      46.449866      46.449866      1.1734514     -2751.6812      403.79451     -94.817581    
      8400   8400           294.20421     -1277.5731      17348.186      19218.059      7590.1481      11627.911      3919.1327      4039.1322      3078.2598      296.52874     -447.70528      6430.3327     -5687.7696     -697.37224      100357.67      46.47116       46.47116       46.47116       1.171839      -1472.7953     -647.753       -1712.171     
      8500   8500           303.83574     -1539.8017      17174.856      19432.064      7838.6313      11593.432      3850.7281      4001.2117      3129.3111      300.33075     -445.46154      6444.0045     -5686.6925     -696.28073      100514.99      46.495431      46.495431      46.495431      1.1700049     -1640.7662     -1966.3513     -1012.2877    
      8600   8600           302.76765     -58.290613      19430.269      19515.733      7811.0756      11704.657      3988.181       4088.0154      3020.3486      314.56333     -463.27703      6444.5736     -5687.7479     -696.1573       100532.81      46.498178      46.498178      46.498178      1.1697975     -1163.3212     -559.01502      1547.4644    
      8700   8700           303.89296     -1373.502       17477.175      19487.238      7840.1073      11647.131      3905.7941      4070.2691      3066.5906      289.37839     -445.00416      6445.4807     -5685.3778     -697.44608      100347.04      46.46952       46.46952       46.46952       1.1719631     -991.25758     -2598.9478     -530.30079    
      8800   8800           297.73476     -715.2741       18326.391      19368.835      7681.2326      11687.602      3985.9083      4008.1387      3087.9912      303.29439     -453.92602      6443.9915     -5687.7958     -700.34334      99931.913      46.405352      46.405352      46.405352      1.1768316      356.25148     -1336.0627     -1166.0111    
      8900   8900           298.41187      451.06851      19943.963      19288.968      7698.7012      11590.267      3954.9972      3984.7198      3035.0353      298.3288      -437.46713      6441.3309     -5686.6778     -702.90347      99567.939      46.348944      46.348944      46.348944      1.1811335      769.66838     -554.454        1137.9912    
      9000   9000           296.08085      289.65146      19711.911      19292.637      7638.5635      11654.073      4057.8931      3957.3871      3019.6978      305.88989     -440.26181      6440.317      -5686.8497     -705.1292       99253.654      46.300125      46.300125      46.300125      1.1848736     -67.234172      910.52466      25.663892    
      9100   9100           302.36174     -206.30276      19137.711      19436.037      7800.6037      11635.434      3934.5096      4096.588       3034.8847      295.41314     -486.51958      6447.9427     -5687.385      -705.83824      99153.95       46.284617      46.284617      46.284617      1.186065      -59.019486     -1218.3056      658.41676    
      9200   9200           300.14333      199.42749      19834.409      19545.436      7743.3712      11802.065      3956.0471      4151.4795      3065.9468      310.12482     -420.65001      6428.3019     -5689.1856     -704.3989       99356.558      46.316121      46.316121      46.316121      1.1836464     -376.06521      978.91005     -4.5623617    
      9300   9300           299.56423     -1685.1249      17003.685      19456.234      7728.431       11727.803      3960.116       4042.9279      3095.1276      306.244       -436.582        6445.5954     -5685.6257     -701.30273      99795.206      46.384181      46.384181      46.384181      1.1784437     -2229.3965     -541.41597     -2284.5621    
      9400   9400           297.76892     -923.34679      18015.543      19365.929      7682.1139      11683.815      3907.4566      4161.9594      3039.3639      300.27388     -491.39907      6452.8631     -5686.7028     -697.90764      100280.68      46.459274      46.459274      46.459274      1.1727387     -1909.8357     -20.390146     -839.81456    
      9500   9500           300.76336     -196.06822      19079.938      19367.488      7759.367       11608.121      3953.6793      4028.6314      2972.3996      308.38429     -424.93082      6456.1722     -5686.2146     -695.95887      100561.47      46.502597      46.502597      46.502597      1.1694641     -1037.6082      132.3389       317.06462    
      9600   9600           298.44227     -518.46147      18619.89       19380.777      7699.4856      11681.291      3918.0273      4018.8302      3113.5887      301.8162      -428.46424      6443.9042     -5686.4113     -695.48445      100630.07      46.513169      46.513169      46.513169      1.1686669     -761.50728      472.10335     -1265.9805    
      9700   9700           302.21838      360.68276      19939.07       19410.253      7796.9051      11613.348      3855.9649      4016.1157      3087.7019      307.24274     -409.69511      6441.2674     -5685.2495     -696.16361      100531.9       46.498038      46.498038      46.498038      1.1698081      389.61552      1296.6823     -604.24951    
      9800   9800           302.23693     -666.0512       18500.222      19475.66       7797.3836      11678.276      4011.4066      3949.5258      3077.5443      306.78876     -420.66348      6439.5047     -5685.8308     -696.9465       100418.97      46.480621      46.480621      46.480621      1.1711236     -598.6414      -1059.8358     -339.67643    
      9900   9900           301.42507     -667.27296      18516.317      19492.293      7776.4386      11715.855      3836.6546      4109.2728      3125.8482      299.58586     -420.54044      6450.4946     -5685.4607     -697.83938      100290.49      46.460789      46.460789      46.460789      1.172624      -1573.467      -509.00693      80.655036    
     10000   10000          299.84903     -615.54979      18587.106      19486.175      7735.7784      11750.397      3949.6877      4050.3818      3091.1801      307.16413     -411.02917      6448.8874     -5685.8749     -698.81292      100150.77      46.439203      46.439203      46.439203      1.1742599     -1848.6076     -303.13361      305.09186    
     10100   10100          302.12152     -376.80181      18847.074      19397.408      7794.4062      11603.002      3896.2357      4000.9099      3050.9186      306.01242     -410.53629      6446.1066     -5686.6449     -698.84012      100146.87      46.438601      46.438601      46.438601      1.1743056     -1206.1312     -704.13977      779.86553    
     10200   10200          296.60066      648.64978      20248.217      19301.259      7651.9739      11649.286      3886.9409      3999.5481      3082.8916      313.5574      -392.97787      6447.7094     -5688.3841     -699.15111      100102.32      46.431714      46.431714      46.431714      1.1748282      17.929951      1221.4708      706.54864    
     10300   10300          301.39691     -993.1777       17858.271      19309.813      7775.7122      11534.101      3896.1439      3948.1101      3044.7404      310.00408     -440.87902      6460.1719     -5684.1906     -698.37452      100213.64      46.448919      46.448919      46.448919      1.1735232      152.84688     -1237.5327     -1894.8473    
     10400   10400          299.89798     -326.09223      18949.339      19425.986      7737.0414      11688.944      3826.1291      4110.627       3083.0682      318.94085     -420.57829      6455.7147     -5684.9574     -698.28906      100225.9       46.450813      46.450813      46.450813      1.1733796      783.71862     -869.33202     -892.66329    
     10500   10500          298.72036     -84.985131      19390.601      19514.676      7706.66        11808.016      3984.6677      4084.421       3068.9864      315.59231     -409.57869      6447.7676     -5683.8402     -699.11747      100107.14      46.432459      46.432459      46.432459      1.1747717      280.3502      -1338.0756      802.77004    
     10600   10600          305.19598     -1304.8444      17592.257      19496.031      7873.7239      11622.307      3898.0596      4019.2818      3073.5388      313.72314     -435.7804       6439.9047     -5686.4209     -699.57522      100041.64      46.422329      46.422329      46.422329      1.1755408     -560.48889     -1256.4052     -2097.6391    
     10700   10700          297.7504      -534.52079      18531.377      19311.187      7681.6362      11629.551      3924.786       4063.8272      3017.5094      311.33421     -449.85368      6447.4979     -5685.5502     -699.62735      100034.18      46.421176      46.421176      46.421176      1.1756284     -246.90143     -1107.8838     -248.7771     
     10800   10800          294.87188     -423.71312      18631.376      19249.872      7607.3733      11642.499      3953.3357      4035.9375      3032.2314      308.51933     -458.8731       6455.6689     -5684.3209     -699.23929      100089.7       46.429762      46.429762      46.429762      1.1749764     -1746.3355      862.38014     -387.18404    
     10900   10900          300.21226      58.146519      19416.258      19331.335      7745.1494      11586.186      3945.0207      4008.114       3000.1389      313.80391     -442.68122      6447.9235     -5686.1343     -698.8573       100144.41      46.43822       46.43822       46.43822       1.1743345      169.6068      -1046.8345      1051.6672    
     11000   11000          300.2307      -639.13186      18502.785      19437.651      7745.6251      11692.026      3917.1572      4043.4154      3096.5601      307.39932     -428.87448      6442.7959     -5686.4277     -697.80231      100295.81      46.461611      46.461611      46.461611      1.1725617     -1050.014      -1180.6697      313.28809    
     11100   11100          299.631       -508.57624      18758.179      19502.999      7730.1534      11772.846      4005.2796      4130.0397      2994.776       294.67947     -420.40748      6452.4851     -5684.0065     -696.94066      100419.81      46.480751      46.480751      46.480751      1.1711138     -260.56099     -429.31991     -835.84782    
     11200   11200          303.05199     -1028.0274      17975.004      19481.104      7818.4113      11662.693      3869.0777      4105.7742      3016.8093      295.10899     -383.53556      6443.853      -5684.3947     -696.69396      100455.37      46.486236      46.486236      46.486236      1.1706993     -713.0646      -1039.1402     -1331.8775    
     11300   11300          295.34933     -870.40147      18055.116      19329.727      7619.6912      11710.036      3932.6105      4077.3865      3057.9762      306.13487     -429.10412      6448.8398     -5683.8075     -697.00038      100411.21      46.479423      46.479423      46.479423      1.1712142     -1024.7718      16.112221     -1602.5448    
     11400   11400          297.41902      544.04125      20037.901      19243.281      7673.0869      11570.194      3964.9244      4032.1567      2961.5307      303.39002     -446.01262      6440.0681     -5685.8631     -698.81662      100150.24      46.439121      46.439121      46.439121      1.1742661      786.40497     -82.701382      928.42017    
     11500   11500          301.08771     -1678.6382      16867.849      19314.325      7767.735       11546.59       3952.2975      4004.4635      3002.0321      294.40725     -465.16352      6441.263      -5682.7098     -700.33714      99932.797      46.405488      46.405488      46.405488      1.1768212     -2052.0684     -2616.4285     -367.41772    
     11600   11600          300.09668      988.95989      20872.944      19435.826      7742.1676      11693.658      4008.6452      4030.1404      2988.3358      324.69444     -417.4652       6442.8916     -5683.5843     -702.38804      99641.004      46.360278      46.360278      46.360278      1.1802674      1042.3883      1586.3109      338.18039    
     11700   11700          301.87218     -829.99405      18231.787      19438.571      7787.9735      11650.598      3856.1107      4060.5649      3146.6332      312.769       -477.31758      6434.909      -5683.0716     -701.99884      99696.247      46.368844      46.368844      46.368844      1.1796134     -1201.8601     -1130.616      -157.50609    
     11800   11800          300.07501     -292.31603      18960.517      19385.348      7741.6086      11643.739      3873.3114      4077.1926      3084.5649      304.45859     -457.32003      6447.4188     -5685.887      -702.30767      99652.407      46.362046      46.362046      46.362046      1.1801324     -166.45649      61.738339     -772.22994    
     11900   11900          297.18077      858.55576      20613.123      19364.794      7666.9401      11697.854      4001.2512      4098.4603      2969.9341      309.39303     -442.59594      6444.8885     -5683.4768     -701.98955      99697.566      46.369049      46.369049      46.369049      1.1795978      67.902042      1155.0889      1352.6763    
     12000   12000          299.79166     -566.14565      18573.775      19398.028      7734.2984      11663.73       3838.6489      4058.9277      3112.6195      313.93196     -407.10595      6432.6776     -5685.9697     -701.06511      99829.03       46.389421      46.389421      46.389421      1.1780444     -1081.0964      1040.3679     -1657.7084    
     12100   12100          301.66833      239.98994      19895.013      19544.403      7782.7143      11761.689      3986.0948      4129.2374      3023.3284      296.45471     -425.24777      6439.8905     -5688.0692     -698.65048      100174.05      46.442802      46.442802      46.442802      1.1739869     -836.22524      1185.4449      370.75018    
     12200   12200          305.07239     -1913.2385      16802.404      19607.839      7870.5354      11737.304      3906.4859      4116.9599      3123.6625      309.14088     -467.30164      6433.0937     -5684.7376     -696.0813       100543.79      46.499871      46.499871      46.499871      1.1696698     -3274.2564     -1473.8669     -991.59224    
     12300   12300          298.08347     -1282.3834      17596.067      19477.473      7690.229       11787.244      3991.0076      4104.4932      3010.5935      307.12783     -382.75634      6442.2512     -5685.4729     -695.7073       100597.84      46.508202      46.508202      46.508202      1.1690413     -983.19698     -2248.2136     -615.73963    
     12400   12400          298.80389     -109.56853      19222.77       19383.636      7708.815       11674.821      3903.0491      4073.0151      3011.6786      299.28174     -368.19487      6439.6983     -5683.7066     -695.20106      100671.09      46.519488      46.519488      46.519488      1.1681907     -701.76081     -123.33066      496.3859     
     12500   12500          301.47917      480.57045      20094.69       19389.71       7777.8343      11611.876      3869.9237      4002.3615      3050.3168      304.36929     -369.46039      6439.0748     -5684.7095     -695.7792       100587.44      46.5066        46.5066        46.5066        1.1691622     -528.38628     -210.3514       2180.449     
     12600   12600          296.3308      -1137.5431      17765.983      19435.514      7645.0121      11790.502      4055.5797      4064.4474      3033.7759      299.87064     -424.2395       6446.5499     -5685.4822     -695.44792      100635.36      46.513983      46.513983      46.513983      1.1686055     -856.12516     -2550.3437     -6.1603908    
     12700   12700          301.78405     -1218.1835      17739.885      19523.067      7785.6998      11737.367      3863.4976      4148.8192      3102.0787      312.36271     -456.18783      6449.9365     -5683.1399     -697.28163      100370.71      46.473173      46.473173      46.473173      1.1716868     -645.38611     -1925.3244     -1083.8399    
     12800   12800          299.81864      395.69424      20178.457      19601.013      7734.9944      11866.018      4039.9161      4097.2449      3054.2338      319.55132     -402.49603      6443.6417     -5686.0735     -699.4243       100063.22      46.425668      46.425668      46.425668      1.1752872      1036.5138     -526.26397      676.83292    
     12900   12900          303.32666      575.59273      20347.689      19510.341      7825.4974      11684.843      3987.8317      4052.6209      2962.4446      302.51631     -363.10117      6429.8215     -5687.2907     -701.61736      99750.453      46.377246      46.377246      46.377246      1.1789724      1349.2282      23.140193      354.40984    
     13000   13000          300.66926     -492.27759      18620.618      19336.955      7756.9395      11580.016      3944.4685      4008.0958      3030.8973      297.87403     -461.83743      6445.9009     -5685.3834     -701.42851      99777.309      46.381408      46.381408      46.381408      1.178655      -820.88483     -118.67852     -537.2694     
     13100   13100          294.53028     -120.70153      19144.668      19320.471      7598.5605      11721.911      4016.4869      4030.3861      3062.0046      305.03134     -441.56962      6434.6311     -5685.0597     -700.77191      99870.798      46.39589       46.39589       46.39589       1.1775517      594.46086     -322.36289     -634.20256    
     13200   13200          299.8268      -1554.0584      17122.559      19386.347      7735.2048      11651.142      3982.1385      4026.2352      3060.6138      308.65649     -472.67785      6433.948      -5687.7721     -700.68472      99883.226      46.397814      46.397814      46.397814      1.1774052     -1149.0387     -1182.9865     -2330.1502    
     13300   13300          302.81563      315.17974      19949.642      19490.423      7812.3134      11678.109      4059.6489      4037.7326      2928.9339      303.27819     -392.61264      6429.1999     -5688.0718     -700.53349      99904.788      46.401152      46.401152      46.401152      1.1771511      54.19534       328.36636      562.97754    
     13400   13400          304.97018     -226.50737      19282.319      19612.64       7867.8986      11744.742      3909.4415      4040.0732      3136.7029      316.39606     -397.39585      6426.292      -5686.7679     -699.9001       99995.198      46.415145      46.415145      46.415145      1.1760868     -597.34731     -648.00079      565.82598    
     13500   13500          301.60388     -1151.1372      17994.64       19674.627      7781.0516      11893.575      4018.7485      4041.9483      3162.0784      321.9333      -398.67111      6435.8084     -5688.2706     -699.3785       100069.78      46.426681      46.426681      46.426681      1.1752103     -461.6093      -1708.0633     -1283.739     
     13600   13600          302.34205      555.21033      20266.354      19455.014      7800.0957      11654.918      3927.9885      4063.3809      2994.5064      307.2774      -381.15679      6427.3437     -5684.422      -698.46651      100200.44      46.446879      46.446879      46.446879      1.1736778      1790.198      -701.24078      576.67377    
     13700   13700          296.84586     -2573.6671      15612.84       19379.962      7658.2999      11721.662      3947.4352      4049.1364      3196.7442      305.32464     -547.34322      6453.9058     -5683.5412     -697.32282      100364.78      46.472258      46.472258      46.472258      1.171756      -2082.423      -3108.8767     -2529.7016    
     13800   13800          298.02822      242.21739      19732.448      19378.183      7688.8035      11689.379      3928.2166      4075.3468      3055.3881      313.12225     -427.69676      6429.5349     -5684.5324     -697.85905      100287.66      46.460352      46.460352      46.460352      1.1726571      631.20031      671.78882     -576.33698    
     13900   13900          302.43722     -241.77828      19071.301      19424.814      7802.551       11622.263      3947.9708      4037.788       3003.0525      312.55943     -456.48238      6462.8395     -5685.4645     -698.07674      100256.38      46.455522      46.455522      46.455522      1.1730228     -1290.122       431.68039      133.10676    
     14000   14000          299.4746      -167.31613      19285.851      19530.286      7726.1186      11804.167      3969.1887      4080.0496      3112.3903      325.3293      -435.91385      6440.1201     -5686.9969     -698.65869      100172.87      46.44262       46.44262       46.44262       1.1740007     -488.54763      851.18827     -864.58902    
     14100   14100          307.61202     -337.87346      19063.537      19556.238      7936.0552      11620.183      3931.2919      3997.8336      3026.1467      311.92852     -397.221        6435.3847     -5685.1819     -699.94129      99989.314      46.414235      46.414235      46.414235      1.176156      -1183.9961      461.87169     -291.49594    
     14200   14200          300.25828     -663.90186      18426.627      19395.078      7746.3367      11648.741      3990.8557      4008.08        3072.1922      293.8076      -476.80965      6446.0885     -5685.4732     -699.70918      100022.48      46.419367      46.419367      46.419367      1.1757659     -838.74997     -549.3883      -603.56731    
     14300   14300          297.18011     -673.29907      18319.1        19301.762      7666.9233      11634.838      3900.8051      4044.5791      3076.5192      324.03993     -478.77419      6453.2386     -5685.5694     -699.35109      100073.7       46.427288      46.427288      46.427288      1.1751642     -420.33973     -1897.9087      298.35122    
     14400   14400          295.56461     -1379.0888      17346.861      19360.442      7625.2451      11735.197      3949.6504      4078.6074      3099.0659      305.30418     -464.7784       6447.9017     -5680.5541     -699.05966      100115.42      46.433739      46.433739      46.433739      1.1746745     -1163.765      -945.43288     -2028.0685    
     14500   14500          298.33846     -745.52512      18382.222      19470.719      7696.8073      11773.911      3966.3079      4072.5882      3133.5966      311.91232     -468.68099      6444.7875     -5686.6003     -699.07924      100112.61      46.433305      46.433305      46.433305      1.1747074     -1457.209       14.759564     -794.12596    
     14600   14600          304.56272     -211.35089      19193.156      19501.769      7857.3866      11644.382      3974.9904      4047.6985      3019.8908      311.17326     -463.01199      6441.549      -5687.908      -699.00661      100123.02      46.434913      46.434913      46.434913      1.1745854      828.48146      87.132945     -1549.6671    
     14700   14700          300.08059     -425.83981      18793.215      19415.231      7741.7524      11673.478      3946.8177      4104.8239      3038.1084      297.07243     -470.71006      6442.2035     -5684.8376     -698.77285      100156.51      46.440091      46.440091      46.440091      1.1741926     -193.57782     -1341.5727      257.63104    
     14800   14800          298.34249     -1056.8095      17814.718      19358.846      7696.9112      11661.934      3950.1537      4076.1117      3046.6285      304.06435     -472.972        6442.8485     -5684.9005     -698.56137      100186.83      46.444777      46.444777      46.444777      1.1738372     -1240.8057     -692.41184     -1237.2108    
     14900   14900          299.18453     -922.27891      18020.432      19368.101      7718.6352      11649.466      3909.7402      4089.4708      3024.3413      311.98492     -450.74235      6447.9447     -5683.2739     -698.50585      100194.79      46.446007      46.446007      46.446007      1.1737439     -2120.3363     -352.63885     -293.86162    
     15000   15000          301.16584     -782.34256      18279.466      19421.073      7769.7507      11651.323      3939.7839      4006.9946      3054.9152      316.00383     -413.05438      6432.3539     -5685.6743     -699.47321      100056.23      46.424586      46.424586      46.424586      1.1753694     -1456.2449     -374.38523     -516.39752    
     15100   15100          301.90724      250.19112      19850.966      19485.876      7788.8781      11696.998      3903.7975      4069.9664      3067.5239      310.2694      -414.34641      6442.787      -5683.0001     -699.46034      100058.07      46.424871      46.424871      46.424871      1.1753478     -940.8468       713.57559      977.84456    
     15200   15200          299.12475     -1567.977       17195.008      19483.953      7717.0929      11766.86       3915.848       4085.9793      3122.8612      311.23801     -437.91891      6451.2713     -5682.419      -699.19026      100096.72      46.430848      46.430848      46.430848      1.174894      -1964.5416     -1084.8945     -1654.495     
     15300   15300          297.41108     -110.02312      19200.584      19361.324      7672.882       11688.442      3940.3205      4077.7033      3068.818       314.40939     -479.27242      6450.081      -5683.6177     -698.63566      100176.18      46.44313       46.44313       46.44313       1.173962      -851.74683     -263.42396      785.10143    
     15400   15400          295.37078      102.64001      19421.58       19271.648      7620.2446      11651.404      4057.4356      4061.3915      2940.2946      298.34311     -458.90233      6438.8799     -5686.0386     -698.7378       100161.53      46.440867      46.440867      46.440867      1.1741337     -1004.7753     -111.90591      1424.6013    
     15500   15500          299.9379      -709.0357       18290.802      19326.945      7738.0713      11588.873      3922.1782      4020.5675      3024.3652      309.12513     -449.57965      6446.0811     -5683.864      -698.45721      100201.77      46.447085      46.447085      46.447085      1.1736622     -596.12294     -690.41216     -840.57199    
     15600   15600          302.83362      60.054312      19561.754      19473.945      7812.7776      11661.167      3936.9034      3996.1021      3054.284       305.78068     -388.64788      6439.913      -5683.168      -698.06655      100257.85      46.455748      46.455748      46.455748      1.1730057      1148.0952     -486.95637     -480.97593    
     15700   15700          300.71569     -1118.8958      17853.398      19489.769      7758.1373      11731.631      4015.5387      4074.174       3060.1826      311.41881     -490.58081      6445.1191     -5684.221      -697.90941      100280.42      46.459235      46.459235      46.459235      1.1727417     -1014.5552     -1593.6685     -748.46379    
[...]
    495100   495100         299.77337      43.377775      19406.537      19343.239      7733.8266      11609.412      3919.4596      4023.3511      3021.5381      315.45233     -425.16478      6440.9271     -5686.1511     -699.46334      100057.64      46.424804      46.424804      46.424804      1.1753528     -227.86728     -743.4579       1101.4585    
    495200   495200         299.37006     -963.75035      17957.223      19365.475      7723.4215      11642.053      3918.1453      4025.3121      3024.8267      325.58997     -412.83928      6445.0923     -5684.0737     -698.51439      100193.57      46.445818      46.445818      46.445818      1.1737583     -1966.7692     -875.74076     -48.741049    
    495300   495300         297.73164      730.5737       20442.969      19376.598      7681.1522      11695.446      4050.6825      4088.3248      2935.5104      317.04066     -441.31436      6432.9168     -5687.7149     -699.27327      100084.83      46.42901       46.42901       46.42901       1.1750335     -341.13278      928.69071      1604.1632    
    495400   495400         300.61869     -387.99198      18779.99       19345.986      7755.6347      11590.351      3847.2612      4056.2922      3086.0375      309.52671     -461.96344      6438.6351     -5685.4381     -699.68196      100026.37      46.419969      46.419969      46.419969      1.1757202     -53.408013      394.04647     -1504.6144    
    495500   495500         300.63923     -832.24844      18027.475      19239.746      7756.1646      11483.581      3783.4175      3970.2154      3081.5812      312.96731     -418.53467      6438.7101     -5684.776      -700.72006      99878.187      46.397034      46.397034      46.397034      1.1774646     -823.77645     -1075.8624     -597.10642    
    495600   495600         297.01298     -447.33534      18467.47       19119.232      7662.6115      11456.62       3843.1546      4004.2111      3020.0803      301.17187     -466.22388      6438.998      -5684.7716     -700.5444       99903.232      46.400912      46.400912      46.400912      1.1771694     -2051.9926      176.89355      533.09305    
    495700   495700         297.08212     -419.82511      18640.102      19252.008      7664.3951      11587.613      3888.4458      4066.2995      3059.3796      312.58628     -494.68804      6439.6882     -5684.0983     -700.28418      99940.355      46.406658      46.406658      46.406658      1.1767322     -1965.6683     -276.90364      983.09657    
    495800   495800         298.25176     -880.29555      18071.554      19355.575      7694.5707      11661.004      3898.2681      4069.4348      3058.4993      324.70262     -431.76072      6428.9435     -5687.0831     -699.75746      100015.58      46.418299      46.418299      46.418299      1.1758471     -796.35        -2083.9008      239.36413    
    495900   495900         299.81174     -702.9769       18399.421      19426.882      7734.8164      11692.066      3921.0727      4088.9793      3066.2311      313.33466     -452.60986      6441.8357     -5686.7779     -698.33988      100218.61      46.449687      46.449687      46.449687      1.173465      -1897.6537      29.021065     -240.29803    
    496000   496000         298.00327     -371.68348      18915.211      19458.983      7688.1599      11770.823      3971.1571      4167.4653      2971.3407      314.02775     -407.02468      6436.718      -5682.8616     -697.6665       100315.34      46.464626      46.464626      46.464626      1.1723335      752.34247     -1676.5098     -190.88309    
    496100   496100         302.21482     -1102.8499      17820.149      19433.632      7796.8132      11636.818      3907.3785      4046.2817      3009.5843      312.48899     -395.43133      6441.7019     -5685.1857     -697.65919      100316.39      46.464788      46.464788      46.464788      1.1723212     -894.14228     -1803.1255     -611.28197    
    496200   496200         296.97672      212.40656      19577.892      19267.217      7661.6761      11605.541      3831.5278      4105.675       2987.7938      303.62847     -380.44447      6442.8026     -5685.4427     -697.83423      100291.22      46.460903      46.460903      46.460903      1.1726154      571.4904       790.5366      -724.80732    
    496300   496300         298.07063      600.52806      20108.266      19229.406      7689.8976      11539.509      3861.4642      3953.4255      3052.7429      311.74081     -387.95109      6435.5921     -5687.5059     -697.43668      100348.39      46.469729      46.469729      46.469729      1.1719473     -506.4372       1833.5567      474.46473    
    496400   496400         300.12513     -682.47363      18351.081      19351.555      7742.9016      11608.654      3927.6283      3957.6094      3018.5529      317.10612     -375.70482      6449.9126     -5686.4508     -696.2593       100518.08      46.495908      46.495908      46.495908      1.1699689     -37.310923     -369.6487      -1640.4613    
    496500   496500         300.96212     -1438.6522      17330.628      19442.532      7764.495       11678.037      3880.4497      4134.2306      3031.1892      298.40269     -425.59929      6444.0089     -5684.6443     -695.30075      100656.66      46.517265      46.517265      46.517265      1.1683582     -2137.0066     -1072.676      -1106.274     
    496600   496600         301.03152     -1114.5587      17802.394      19438.565      7766.2853      11672.28       3881.5906      4107.1777      3052.4679      310.42519     -422.75519      6429.9967     -5686.623      -695.28906      100658.35      46.517525      46.517525      46.517525      1.1683385     -2190.9637     -745.24223     -407.47023    
    496700   496700         299.61493      13.493988      19390.553      19370.769      7729.739       11641.03       3971.4017      4043.3468      2985.7833      319.39507     -432.43775      6440.2182     -5686.6772     -696.15982      100532.45      46.498123      46.498123      46.498123      1.1698017     -285.21358     -56.353519      382.04906    
    496800   496800         301.44385     -1059.4908      17766.212      19316.402      7776.923       11539.479      3924.8541      4022.4611      3021.7374      304.65219     -504.28419      6453.6259     -5683.5674     -697.59499      100325.62      46.466214      46.466214      46.466214      1.1722133     -1517.4265     -744.98181     -916.06411    
    496900   496900         298.01308      458.43354      19925.681      19257.037      7688.4128      11568.624      3903.5675      4058.1368      2963.5846      303.93019     -408.61274      6432.8464     -5684.8288     -699.79795      100009.79      46.417404      46.417404      46.417404      1.1759151      620.07189      718.43088      36.797844    
    497000   497000         300.1332      -1385.319       17238.451      19255.366      7743.1097      11512.256      3866.3493      3966.2326      3103.2359      311.97844     -476.29341      6428.9546     -5688.2015     -701.05703      99830.18       46.389599      46.389599      46.389599      1.1780308     -1242.267      -1683.9138     -1229.7763    
    497100   497100         298.5352      -1652.8061      16957.505      19362.176      7701.8831      11660.293      4042.1622      4055.7439      2967.8676      311.60147     -465.96177      6436.2409     -5687.3612     -701.54775      99760.351      46.37878       46.37878       46.37878       1.1788554     -1789.734      -2156.4174     -1012.267     
    497200   497200         300.19162      236.26145      19798.61       19454.972      7744.6168      11710.355      3968.7092      4095.6545      3036.7038      316.54983     -454.0485       6436.8409     -5690.0544     -701.75159      99731.373      46.374289      46.374289      46.374289      1.1791979     -517.26741     -198.31094      1424.3627    
    497300   497300         301.19599      270.65424      19833.345      19439.404      7770.5285      11668.875      3960.6811      3997.185       3032.2945      322.47558     -396.18875      6438.6584     -5686.2307     -701.2521       99802.41       46.385297      46.385297      46.385297      1.1783586     -337.37744      724.3984       424.94178    
    497400   497400         297.79863      375.01539      19831.534      19284.888      7682.8802      11602.008      3990.2715      4076.0399      2947.7572      300.99064     -446.06637      6421.3793     -5688.3643     -700.21893      99949.668      46.4081        46.4081        46.4081        1.1766225      827.22667      482.41125     -184.59176    
    497500   497500         296.24096      45.924733      19267.935      19200.958      7642.6941      11558.264      4016.5398      4057.1031      2867.0399      288.59729     -428.29649      6441.7916     -5684.5109     -699.86184      100000.67      46.415991      46.415991      46.415991      1.1760225     -199.97476      496.84498     -159.09602    
    497600   497600         297.63896     -17.61021       19261.365      19287.071      7678.7611      11608.31       3912.0762      4062.5545      2981.2763      309.60201     -406.00137      6434.0569     -5685.2549     -699.23088      100090.9       46.429948      46.429948      46.429948      1.1749622     -5.6074999      383.67739     -430.90052    
    497700   497700         298.10093      569.86511      20196.299      19364.695      7690.6793      11674.015      3966.0734      4061.7744      3045.8145      309.03239     -451.6144       6433.0993     -5690.1642     -699.4333       100061.94      46.425469      46.425469      46.425469      1.1753024      1865.2009      851.1008      -1006.7063    
    497800   497800         301.46185     -981.34685      17969.954      19403.294      7777.3874      11625.907      3979.3146      4060.6439      2950.3883      300.23177     -418.01031      6438.9226     -5685.5843     -698.81874      100149.93      46.439074      46.439074      46.439074      1.1742697     -1322.4904     -305.31758     -1316.2326    
    497900   497900         303.63406     -2768.1538      15374.946      19420.285      7833.4282      11586.856      3852.2451      4065.4545      3135.8751      310.37517     -530.02668      6442.4211     -5689.4879     -698.43577      100204.85      46.447561      46.447561      46.447561      1.1736261     -3082.1199     -2452.1768     -2770.1646    
    498000   498000         300.58863     -913.3838       18030.997      19365.182      7754.8593      11610.323      3917.3695      4034.0691      3062.902       312.61731     -474.29159      6444.0372     -5686.3805     -698.76046      100158.29      46.440365      46.440365      46.440365      1.1741718     -1380.2814     -123.59726     -1236.2727    
    498100   498100         294.22506     -298.42401      18764.066      19200.364      7590.6861      11609.678      3977.5802      4041.0276      3039.1877      306.2882      -500.95135      6432.5354     -5685.9899     -698.13894      100247.45      46.454142      46.454142      46.454142      1.1731274     -146.66595     -235.03404     -513.57205    
    498200   498200         297.48793     -391.49792      18631.841      19204.445      7674.8647      11529.58       3968.0235      3925.607       3029.8188      308.68502     -453.30493      6439.4307     -5688.6804     -697.85731      100287.91      46.460391      46.460391      46.460391      1.1726541     -1068.1818     -45.268457     -61.043541    
    498300   498300         297.48496     -241.92362      19010.455      19363.82       7674.7881      11689.032      4007.9524      4053.7739      2981.7587      297.30427     -398.02789      6433.0099     -5686.7395     -698.78925      100154.16      46.439728      46.439728      46.439728      1.1742201     -1191.829       346.76871      119.28946    
    498400   498400         300.42066     -634.49184      18499.005      19424.614      7750.526       11674.088      3909.1505      4073.8082      3044.1797      312.69297     -408.34049      6430.0295     -5687.4325     -699.66437      100028.89      46.420358      46.420358      46.420358      1.1756907      202.08572     -1085.3605     -1020.2007    
    498500   498500         298.62575     -372.29363      18881.251      19423.282      7704.219       11719.063      3987.9775      4046.8039      3053.7931      306.67829     -418.18174      6431.5978     -5689.6061     -701.05577      99830.359      46.389627      46.389627      46.389627      1.1780287      4.4293074     -722.60755     -398.70264    
    498600   498600         300.94373     -538.95515      18583.457      19368.188      7764.0205      11604.168      3888.0692      3970.6998      3091.8715      317.86508     -408.19605      6430.9814     -5687.1234     -701.00816      99837.139      46.390677      46.390677      46.390677      1.1779487      96.406392     -1264.8195     -448.45237    
    498700   498700         299.516        1663.5703      21683.505      19258.023      7727.1865      11530.836      3969.4615      4011.7007      2892.6392      313.26559     -407.20079      6439.1442     -5688.1742     -700.05816      99972.622      46.411652      46.411652      46.411652      1.1763524      1528.2076      1203.4296      2259.0738    
    498800   498800         294.62943     -1520.8835      16981.313      19207.086      7601.1184      11605.968      3933.3805      4012.9522      3066.108       305.48546     -467.39803      6438.469      -5683.0291     -697.43865      100348.11      46.469685      46.469685      46.469685      1.1719506     -2323.0426     -692.19081     -1547.4172    
    498900   498900         298.66306     -2424.877       15808.422      19366.62       7705.1816      11661.438      3901.2228      3993.5371      3191.6915      303.44483     -481.64049      6437.0485     -5683.8662     -695.58589      100615.4       46.510908      46.510908      46.510908      1.1688373     -3405.545      -1327.5676     -2541.5184    
    499000   499000         299.7794      -369.34821      18928.407      19470.799      7733.982       11736.817      3959.5544      4075.7143      3038.3577      325.36453     -409.03601      6433.6666     -5686.8047     -695.04655      100693.47      46.522935      46.522935      46.522935      1.167931      -962.43558     -72.669274     -72.939791    
    499100   499100         297.56871     -816.41948      18277.87       19474.965      7676.9486      11798.017      4043.7171      4073.1331      3040.7292      313.5803      -425.80201      6439.2967     -5686.6378     -696.10653      100540.14      46.499309      46.499309      46.499309      1.1697122     -1442.5823     -260.17715     -746.49895    
    499200   499200         298.99018      283.63426      19809.694      19394.986      7713.621       11681.365      4002.8096      4048.8991      2949.7341      308.97237     -380.04986      6436.5779     -5685.5778     -698.08343      100255.42      46.455374      46.455374      46.455374      1.1730341     -1183.9819     -338.19464      2373.0793    
    499300   499300         300.67364     -32.746777      19217.145      19264.901      7757.0525      11507.848      3943.8279      3977.6576      2949.6994      290.53274     -394.8777       6429.8359     -5688.8277     -699.89101      99996.498      46.415347      46.415347      46.415347      1.1760715     -600.73792     -99.519839      602.01742    
    499400   499400         298.38263      483.83278      19874.014      19169.014      7697.9469      11471.067      3941.7072      4007.7155      2892.1331      298.64901     -416.70954      6437.8417     -5690.2703     -700.48224      99912.098      46.402284      46.402284      46.402284      1.177065       452.50427      156.49514      842.49892    
    499500   499500         298.70808      1.2422439      19244.586      19242.774      7706.3431      11536.431      3877.1781      3975.6963      3055.9291      292.57376     -397.76337      6423.4308     -5690.6142     -699.64169      100032.13      46.420859      46.420859      46.420859      1.1756525     -164.23152      514.44758     -346.48933    
    499600   499600         302.28104     -359.90862      18914.178      19441.545      7798.5217      11643.024      4018.2303      3973.5237      3035.588       298.6271      -433.68728      6435.2223     -5684.4803     -696.57785      100472.11      46.488819      46.488819      46.488819      1.1705042     -2160.6899      711.01731      369.94668    
    499700   499700         300.86246     -789.85882      18326.232      19486.722      7761.9239      11724.798      4010.328       4066.9065      2980.8111      303.36149     -389.65169      6439.1598     -5686.1172     -694.703        100743.27      46.530603      46.530603      46.530603      1.1673537     -1846.3301      33.432462     -556.67881    
    499800   499800         298.37607     -2183.3338      16223.096      19439.853      7697.7776      11742.075      3941.4172      4080.8855      3116.0608      305.41177     -451.39074      6435.8974     -5686.207      -692.7764       101023.43      46.573696      46.573696      46.573696      1.1641164     -1510.1335     -2680.407      -2359.4608    
    499900   499900         296.70934     -1113.0735      17702.581      19340.819      7654.778       11686.041      3960.5504      4014.1997      3077.0064      307.75377     -437.2177       6450.6286     -5686.8798     -693.48613      100920.04      46.557803      46.557803      46.557803      1.165309      -1152.1194     -775.57006     -1411.5309    
    500000   500000         295.24338     -559.14043      18460.821      19282.553      7616.9578      11665.596      3982.1139      3955.8617      3047.3368      304.78878     -373.73509      6434.3883     -5685.1589     -694.51507      100770.53      46.534799      46.534799      46.534799      1.167038       333.27074     -713.54778     -1297.1442    
Loop time of 2319.11 on 1 procs for 500000 steps with 8656 atoms

Performance: 18.628 ns/day, 1.288 hours/ns, 215.600 timesteps/s, 1.866 Matom-step/s
100.0% CPU use with 1 MPI tasks x 1 OpenMP threads

MPI task timing breakdown:
Section |  min time  |  avg time  |  max time  |%varavg| %total
---------------------------------------------------------------
Pair    | 1103       | 1103       | 1103       |   0.0 | 47.56
Bond    | 368.2      | 368.2      | 368.2      |   0.0 | 15.88
Kspace  | 483.59     | 483.59     | 483.59     |   0.0 | 20.85
Neigh   | 116.59     | 116.59     | 116.59     |   0.0 |  5.03
Comm    | 17.025     | 17.025     | 17.025     |   0.0 |  0.73
Output  | 0.72155    | 0.72155    | 0.72155    |   0.0 |  0.03
Modify  | 146.54     | 146.54     | 146.54     |   0.0 |  6.32
Other   |            | 83.41      |            |       |  3.60

Nlocal:           8656 ave        8656 max        8656 min
Histogram: 1 0 0 0 0 0 0 0 0 0
Nghost:          20314 ave       20314 max       20314 min
Histogram: 1 0 0 0 0 0 0 0 0 0
Neighs:              0 ave           0 max           0 min
Histogram: 1 0 0 0 0 0 0 0 0 0
FullNghs:  4.72419e+06 ave 4.72419e+06 max 4.72419e+06 min
Histogram: 1 0 0 0 0 0 0 0 0 0

Total # of neighbors = 4724192
Ave neighs/atom = 545.77079
Ave special neighs/atom = 5.7689464
Neighbor list builds = 16284
Dangerous builds = 0
write_data bm_P-500_out.data
System init for write_data ...
PPPM Kokkos initialization ...
  using 12-bit tables for long-range coulomb
  G vector (1/distance) = 0.29759607
  grid = 32 32 32
  stencil order = 5
  estimated absolute RMS force accuracy = 0.00035965294
  estimated relative force accuracy = 1.0830842e-06
  using double precision cuFFT
  3d grid and FFT values/proc = 59319 32768
Generated 28 of 28 mixed pair_coeff terms from sixthpower/sixthpower mixing rule
Total wall time: 0:38:42
