units real
atom_style full
boundary p p p

# --- Force Field Styles ---
pair_style lj/class2/coul/long 9.5 9.5
kspace_style pppm 1e-6
dielectric 1.000000
bond_style class2
angle_style class2
dihedral_style class2
improper_style class2
special_bonds lj/coul 0 0 1
pair_modify mix sixthpower tail yes
neighbor 2.0 bin
neigh_modify delay 0 every 1 check yes
neigh_modify one 4000
# KOKKOS: package loaded via -pk kokkos on the command line

read_data /home/alexzhao/PolyJarvis/data/PVC2/lammps/equil/minimize/minimize_out.data
Reading data file ...
  orthogonal box = (0 0 0) to (48.385495 48.385495 48.385495)
  1 by 1 by 1 MPI processor grid
  reading atoms ...
  3620 atoms
  reading velocities ...
  3620 velocities
  scanning bonds ...
  4 = max bonds/atom
  scanning angles ...
  12 = max angles/atom
  scanning dihedrals ...
  24 = max dihedrals/atom
  scanning impropers ...
  10 = max impropers/atom
  orthogonal box = (0 0 0) to (48.385495 48.385495 48.385495)
  1 by 1 by 1 MPI processor grid
  reading bonds ...
  3610 bonds
  reading angles ...
  7200 angles
  reading dihedrals ...
  10710 dihedrals
  reading impropers ...
  4800 impropers
Finding 1-2 1-3 1-4 neighbors ...
  special bond factors lj:    0        0        1       
  special bond factors coul:  0        0        1       
     4 = max # of 1-2 neighbors
     6 = max # of 1-3 neighbors
    10 = max # of special neighbors
  special bonds CPU = 0.003 seconds
  read_data CPU = 0.241 seconds
include /home/alexzhao/PolyJarvis/data/PVC2/lammps/equil/emc_build.params
# LAMMPS parameters created by EMC v9.4.4, build Jul 31 2025 20:33:44

# Variables

variable	seed		index	482917
variable	ntotal		index	3620
variable	fshape		index	1
variable	output		index	emc_build
variable	field		index	pcff/pcff
variable	location1	index	~/emc/field/
variable	nav		index	0.6022141179
variable	temperature	index	300
variable	radius		index	5
variable	nrelax		index	100
variable	weight_nonbond	index	0.0001
variable	weight_bond	index	0.0001
variable	weight_focus	index	1
variable	cutoff		index	9.5
variable	charge_cutoff	index	9.5
variable	kappa		index	4
variable	density1	index	0.55
variable	lprevious	index	0
variable	lphase		index	48.3854950346
variable	f_poly		index	10
variable	chem_repeat	index	*CC(Cl)*
variable	chem_cap	index	*[H]
variable	lg_repeat	index	6
variable	lg_cap		index	1
variable	norm_poly	index	100
variable	l_poly		index	362
variable	mg_repeat	index	50.48806
variable	mg_cap		index	1.00797
variable	m_poly		index	3031.29954
variable	n_poly		index	10
variable	mtotal		index	37519.6854
variable	nphase1		index	3620
variable	mphase1		index	37519.6854
variable	vphase1		index	113277.998291
variable	lbox		index	48.3854950346
variable	lphase1		index	48.3854950346
variable	lxx		index	48.3854950346
variable	lyy		index	48.3854950346
variable	lzz		index	48.3854950346
variable	lzy		index	0
variable	lzx		index	0
variable	lyx		index	0
variable	vtotal		index	113277.998291
variable	nl_poly		index	10

# Types

variable	type_c		index	1
variable	type_c1		index	2
variable	type_cl		index	3
variable	type_hc		index	4

variable	type_bond_c_c	index	1
variable	type_bond_c_c1	index	2
variable	type_bond_c_cl	index	3
variable	type_bond_c_hc	index	4
variable	type_bond_c1_cl	index	5
variable	type_bond_c1_hc	index	6

variable	type_angle_c_c_c1 index	1
variable	type_angle_c_c_cl index	2
variable	type_angle_c_c_hc index	3
variable	type_angle_c_c1_c index	4
variable	type_angle_c_c1_cl index	5
variable	type_angle_c_c1_hc index	6
variable	type_angle_c1_c_c1 index	7
variable	type_angle_c1_c_hc index	8
variable	type_angle_cl_c_hc index	9
variable	type_angle_cl_c1_hc index	10
variable	type_angle_hc_c_hc index	11

# Clusters

variable	n0_poly		index	1
variable	n1_poly		index	10
variable	nl_poly		index	10

# Flags

variable	flag_charged	index	1

# Masses

mass		1    12.01115  # c
mass		2    12.01115  # c1
mass		3    35.45300  # cl
mass		4     1.00797  # hc

# Potentials

pair_modify	mix sixthpower tail yes
special_bonds	lj/coul 0 0 1

# Pair Coeffs

pair_coeff	 1  1    0.05400    4.01000  # c,c
pair_coeff	 2  2    0.05400    4.01000  # c1,c1
pair_coeff	 3  3    0.22470    3.92000  # cl,cl
pair_coeff	 4  4    0.02000    2.99500  # hc,hc

# Bond Coeffs

bond_coeff	1    1.53000  299.67000 -501.77000  679.81000  # c,c
bond_coeff	2    1.53000  299.67000 -501.77000  679.81000  # c,c1
bond_coeff	3    1.79000  194.31900    0.00000    0.00000  # c,cl
bond_coeff	4    1.10100  345.00000 -691.89000  844.60000  # c,hc
bond_coeff	5    1.79000  194.31900    0.00000    0.00000  # c1,cl
bond_coeff	6    1.10100  345.00000 -691.89000  844.60000  # c1,hc

# Angle Coeffs

angle_coeff	 1  112.67000   39.51600   -7.44300   -9.55830  # c,c,c1
angle_coeff	 2  107.00000   61.17450    0.00000    0.00000  # c,c,cl
angle_coeff	 3  110.77000   41.45300  -10.60400    5.12900  # c,c,hc
angle_coeff	 4  112.67000   39.51600   -7.44300   -9.55830  # c,c1,c
angle_coeff	 5  107.00000   61.17450    0.00000    0.00000  # c,c1,cl
angle_coeff	 6  110.77000   41.45300  -10.60400    5.12900  # c,c1,hc
angle_coeff	 7  112.67000   39.51600   -7.44300   -9.55830  # c1,c,c1
angle_coeff	 8  110.77000   41.45300  -10.60400    5.12900  # c1,c,hc
angle_coeff	 9  107.99680   51.09870    0.00000    0.00000  # cl,c,hc
angle_coeff	10  107.99680   51.09870    0.00000    0.00000  # cl,c1,hc
angle_coeff	11  107.66000   39.64100  -12.92100   -2.43180  # hc,c,hc

# BondBond Coeffs

angle_coeff	 1 bb    0.00000    1.53000    1.53000  # c,c,c1
angle_coeff	 2 bb    0.00000    1.53000    1.79000  # c,c,cl
angle_coeff	 3 bb    3.38720    1.53000    1.10100  # c,c,hc
angle_coeff	 4 bb    0.00000    1.53000    1.53000  # c,c1,c
angle_coeff	 5 bb    0.00000    1.53000    1.79000  # c,c1,cl
angle_coeff	 6 bb    3.38720    1.53000    1.10100  # c,c1,hc
angle_coeff	 7 bb    0.00000    1.53000    1.53000  # c1,c,c1
angle_coeff	 8 bb    3.38720    1.53000    1.10100  # c1,c,hc
angle_coeff	 9 bb    0.00000    1.79000    1.10100  # cl,c,hc
angle_coeff	10 bb    0.00000    1.79000    1.10100  # cl,c1,hc
angle_coeff	11 bb    5.33160    1.10100    1.10100  # hc,c,hc

# BondAngle Coeffs

angle_coeff	 1 ba    8.01600    8.01600    1.53000    1.53000  # c,c,c1
angle_coeff	 2 ba    0.00000    0.00000    1.53000    1.79000  # c,c,cl
angle_coeff	 3 ba   20.75400   11.42100    1.53000    1.10100  # c,c,hc
angle_coeff	 4 ba    8.01600    8.01600    1.53000    1.53000  # c,c1,c
angle_coeff	 5 ba    0.00000    0.00000    1.53000    1.79000  # c,c1,cl
angle_coeff	 6 ba   20.75400   11.42100    1.53000    1.10100  # c,c1,hc
angle_coeff	 7 ba    8.01600    8.01600    1.53000    1.53000  # c1,c,c1
angle_coeff	 8 ba   20.75400   11.42100    1.53000    1.10100  # c1,c,hc
angle_coeff	 9 ba    0.00000    0.00000    1.79000    1.10100  # cl,c,hc
angle_coeff	10 ba    0.00000    0.00000    1.79000    1.10100  # cl,c1,hc
angle_coeff	11 ba   18.10300   18.10300    1.10100    1.10100  # hc,c,hc

# Dihedral Coeffs

dihedral_coeff	 1    0.00000    0.00000    0.05140    0.00000   -0.14300    0.00000  # c,c,c1,c
dihedral_coeff	 2    0.00000    0.00000    0.00000    0.00000    0.15000    0.00000  # c,c,c1,cl
dihedral_coeff	 3    0.00000    0.00000    0.03160    0.00000   -0.16810    0.00000  # c,c,c1,hc
dihedral_coeff	 4    0.00000    0.00000    0.05140    0.00000   -0.14300    0.00000  # c,c1,c,c1
dihedral_coeff	 5    0.00000    0.00000    0.03160    0.00000   -0.16810    0.00000  # c,c1,c,hc
dihedral_coeff	 6    0.00000    0.00000    0.00000    0.00000    0.15000    0.00000  # c1,c,c,cl
dihedral_coeff	 7    0.00000    0.00000    0.03160    0.00000   -0.16810    0.00000  # c1,c,c,hc
dihedral_coeff	 8    0.00000    0.00000    0.00000    0.00000    0.15000    0.00000  # c1,c,c1,cl
dihedral_coeff	 9    0.00000    0.00000    0.03160    0.00000   -0.16810    0.00000  # c1,c,c1,hc
dihedral_coeff	10    0.00000    0.00000    0.00000    0.00000   -0.10000    0.00000  # cl,c,c,hc
dihedral_coeff	11    0.00000    0.00000    0.00000    0.00000   -0.10000    0.00000  # cl,c1,c,hc
dihedral_coeff	12   -0.14320    0.00000    0.06170    0.00000   -0.10830    0.00000  # hc,c,c,hc
dihedral_coeff	13   -0.14320    0.00000    0.06170    0.00000   -0.10830    0.00000  # hc,c,c1,hc

# MiddleBondTorsion Coeffs

dihedral_coeff	 1 mbt  -17.78700   -7.18770    0.00000    1.53000  # c,c,c1,c
dihedral_coeff	 2 mbt    0.00000    0.00000    0.00000    1.53000  # c,c,c1,cl
dihedral_coeff	 3 mbt  -14.87900   -3.65810   -0.31380    1.53000  # c,c,c1,hc
dihedral_coeff	 4 mbt  -17.78700   -7.18770    0.00000    1.53000  # c,c1,c,c1
dihedral_coeff	 5 mbt  -14.87900   -3.65810   -0.31380    1.53000  # c,c1,c,hc
dihedral_coeff	 6 mbt    0.00000    0.00000    0.00000    1.53000  # c1,c,c,cl
dihedral_coeff	 7 mbt  -14.87900   -3.65810   -0.31380    1.53000  # c1,c,c,hc
dihedral_coeff	 8 mbt    0.00000    0.00000    0.00000    1.53000  # c1,c,c1,cl
dihedral_coeff	 9 mbt  -14.87900   -3.65810   -0.31380    1.53000  # c1,c,c1,hc
dihedral_coeff	10 mbt    0.00000    0.00000    0.00000    1.53000  # cl,c,c,hc
dihedral_coeff	11 mbt    0.00000    0.00000    0.00000    1.53000  # cl,c1,c,hc
dihedral_coeff	12 mbt  -14.26100   -0.53220   -0.48640    1.53000  # hc,c,c,hc
dihedral_coeff	13 mbt  -14.26100   -0.53220   -0.48640    1.53000  # hc,c,c1,hc

# EndBondTorsion Coeffs

dihedral_coeff	 1 ebt   -0.07320    0.00000    0.00000   -0.07320    0.00000    0.00000    1.53000    1.53000  # c,c,c1,c
dihedral_coeff	 2 ebt    0.00000    0.00000    0.00000    0.00000    0.00000    0.00000    1.53000    1.79000  # c,c,c1,cl
dihedral_coeff	 3 ebt    0.24860    0.24220   -0.09250    0.08140    0.05910    0.22190    1.53000    1.10100  # c,c,c1,hc
dihedral_coeff	 4 ebt   -0.07320    0.00000    0.00000   -0.07320    0.00000    0.00000    1.53000    1.53000  # c,c1,c,c1
dihedral_coeff	 5 ebt    0.24860    0.24220   -0.09250    0.08140    0.05910    0.22190    1.53000    1.10100  # c,c1,c,hc
dihedral_coeff	 6 ebt    0.00000    0.00000    0.00000    0.00000    0.00000    0.00000    1.53000    1.79000  # c1,c,c,cl
dihedral_coeff	 7 ebt    0.24860    0.24220   -0.09250    0.08140    0.05910    0.22190    1.53000    1.10100  # c1,c,c,hc
dihedral_coeff	 8 ebt    0.00000    0.00000    0.00000    0.00000    0.00000    0.00000    1.53000    1.79000  # c1,c,c1,cl
dihedral_coeff	 9 ebt    0.24860    0.24220   -0.09250    0.08140    0.05910    0.22190    1.53000    1.10100  # c1,c,c1,hc
dihedral_coeff	10 ebt    0.00000    0.00000    0.00000    0.00000    0.00000    0.00000    1.79000    1.10100  # cl,c,c,hc
dihedral_coeff	11 ebt    0.00000    0.00000    0.00000    0.00000    0.00000    0.00000    1.79000    1.10100  # cl,c1,c,hc
dihedral_coeff	12 ebt    0.21300    0.31200    0.07770    0.21300    0.31200    0.07770    1.10100    1.10100  # hc,c,c,hc
dihedral_coeff	13 ebt    0.21300    0.31200    0.07770    0.21300    0.31200    0.07770    1.10100    1.10100  # hc,c,c1,hc

# AngleTorsion Coeffs

dihedral_coeff	 1 at    0.38860   -0.31390    0.13890    0.38860   -0.31390    0.13890  112.67000  112.67000  # c,c,c1,c
dihedral_coeff	 2 at    0.00000    0.00000    0.00000    0.00000    0.00000    0.00000  112.67000  107.00000  # c,c,c1,cl
dihedral_coeff	 3 at   -0.24540    0.00000   -0.11360    0.31130    0.45160   -0.19880  112.67000  110.77000  # c,c,c1,hc
dihedral_coeff	 4 at    0.38860   -0.31390    0.13890    0.38860   -0.31390    0.13890  112.67000  112.67000  # c,c1,c,c1
dihedral_coeff	 5 at   -0.24540    0.00000   -0.11360    0.31130    0.45160   -0.19880  112.67000  110.77000  # c,c1,c,hc
dihedral_coeff	 6 at    0.00000    0.00000    0.00000    0.00000    0.00000    0.00000  112.67000  107.00000  # c1,c,c,cl
dihedral_coeff	 7 at   -0.24540    0.00000   -0.11360    0.31130    0.45160   -0.19880  112.67000  110.77000  # c1,c,c,hc
dihedral_coeff	 8 at    0.00000    0.00000    0.00000    0.00000    0.00000    0.00000  112.67000  107.00000  # c1,c,c1,cl
dihedral_coeff	 9 at   -0.24540    0.00000   -0.11360    0.31130    0.45160   -0.19880  112.67000  110.77000  # c1,c,c1,hc
dihedral_coeff	10 at    0.00000    0.00000    0.00000    0.00000    0.00000    0.00000  107.00000  110.77000  # cl,c,c,hc
dihedral_coeff	11 at    0.00000    0.00000    0.00000    0.00000    0.00000    0.00000  107.00000  110.77000  # cl,c1,c,hc
dihedral_coeff	12 at   -0.80850    0.55690   -0.24660   -0.80850    0.55690   -0.24660  110.77000  110.77000  # hc,c,c,hc
dihedral_coeff	13 at   -0.80850    0.55690   -0.24660   -0.80850    0.55690   -0.24660  110.77000  110.77000  # hc,c,c1,hc

# AngleAngleTorsion Coeffs

dihedral_coeff	 1 aat  -22.04500  112.67000  112.67000  # c,c,c1,c
dihedral_coeff	 2 aat    0.00000  112.67000  107.00000  # c,c,c1,cl
dihedral_coeff	 3 aat  -16.16400  112.67000  110.77000  # c,c,c1,hc
dihedral_coeff	 4 aat  -22.04500  112.67000  112.67000  # c,c1,c,c1
dihedral_coeff	 5 aat  -16.16400  112.67000  110.77000  # c,c1,c,hc
dihedral_coeff	 6 aat    0.00000  112.67000  107.00000  # c1,c,c,cl
dihedral_coeff	 7 aat  -16.16400  112.67000  110.77000  # c1,c,c,hc
dihedral_coeff	 8 aat    0.00000  112.67000  107.00000  # c1,c,c1,cl
dihedral_coeff	 9 aat  -16.16400  112.67000  110.77000  # c1,c,c1,hc
dihedral_coeff	10 aat    0.00000  107.00000  110.77000  # cl,c,c,hc
dihedral_coeff	11 aat    0.00000  107.00000  110.77000  # cl,c1,c,hc
dihedral_coeff	12 aat  -12.56400  110.77000  110.77000  # hc,c,c,hc
dihedral_coeff	13 aat  -12.56400  110.77000  110.77000  # hc,c,c1,hc

# BondBond13 Coeffs

dihedral_coeff	 1 bb13    0.00000    1.53000    1.53000  # c,c,c1,c
dihedral_coeff	 2 bb13    0.00000    1.53000    1.79000  # c,c,c1,cl
dihedral_coeff	 3 bb13    0.00000    1.53000    1.10100  # c,c,c1,hc
dihedral_coeff	 4 bb13    0.00000    1.53000    1.53000  # c,c1,c,c1
dihedral_coeff	 5 bb13    0.00000    1.53000    1.10100  # c,c1,c,hc
dihedral_coeff	 6 bb13    0.00000    1.53000    1.79000  # c1,c,c,cl
dihedral_coeff	 7 bb13    0.00000    1.53000    1.10100  # c1,c,c,hc
dihedral_coeff	 8 bb13    0.00000    1.53000    1.79000  # c1,c,c1,cl
dihedral_coeff	 9 bb13    0.00000    1.53000    1.10100  # c1,c,c1,hc
dihedral_coeff	10 bb13    0.00000    1.79000    1.10100  # cl,c,c,hc
dihedral_coeff	11 bb13    0.00000    1.79000    1.10100  # cl,c1,c,hc
dihedral_coeff	12 bb13    0.00000    1.10100    1.10100  # hc,c,c,hc
dihedral_coeff	13 bb13    0.00000    1.10100    1.10100  # hc,c,c1,hc

# Improper Coeffs

improper_coeff	 1    0.00000    0.00000  # c,c,cl,hc
improper_coeff	 2    0.00000    0.00000  # c,c,hc,c1
improper_coeff	 3    0.00000    0.00000  # c,c,hc,cl
improper_coeff	 4    0.00000    0.00000  # c,c,hc,hc
improper_coeff	 5    0.00000    0.00000  # c,c1,c1,hc
improper_coeff	 6    0.00000    0.00000  # c,c1,hc,hc
improper_coeff	 7    0.00000    0.00000  # c,cl,hc,hc
improper_coeff	 8    0.00000    0.00000  # c,hc,hc,hc
improper_coeff	 9    0.00000    0.00000  # c1,c,c,cl
improper_coeff	10    0.00000    0.00000  # c1,c,c,hc
improper_coeff	11    0.00000    0.00000  # c1,c,cl,hc

# AngleAngle Coeffs

improper_coeff	 1 aa    0.00000    0.00000    0.00000  107.00000  110.77000  107.99680  # c,c,cl,hc
improper_coeff	 2 aa    0.11840   -1.31990   -1.31990  110.77000  112.67000  110.77000  # c,c,hc,c1
improper_coeff	 3 aa    0.00000    0.00000    0.00000  110.77000  107.00000  107.99680  # c,c,hc,cl
improper_coeff	 4 aa    0.27380   -0.48250    0.27380  110.77000  110.77000  107.66000  # c,c,hc,hc
improper_coeff	 5 aa   -1.31990   -1.31990    0.11840  112.67000  110.77000  110.77000  # c,c1,c1,hc
improper_coeff	 6 aa    0.27380   -0.48250    0.27380  110.77000  110.77000  107.66000  # c,c1,hc,hc
improper_coeff	 7 aa    0.00000    0.00000    0.00000  107.99680  107.99680  107.66000  # c,cl,hc,hc
improper_coeff	 8 aa   -0.31570   -0.31570   -0.31570  107.66000  107.66000  107.66000  # c,hc,hc,hc
improper_coeff	 9 aa    0.00000    0.00000    0.00000  112.67000  107.00000  107.00000  # c1,c,c,cl
improper_coeff	10 aa   -1.31990   -1.31990    0.11840  112.67000  110.77000  110.77000  # c1,c,c,hc
improper_coeff	11 aa    0.00000    0.00000    0.00000  107.00000  110.77000  107.99680  # c1,c,cl,hc


# --- Thermo Output ---
thermo_style custom step time temp press enthalpy etotal ke pe ebond eangle edihed eimp evdwl ecoul elong etail vol lx ly lz density pxx pyy pzz
thermo_modify flush yes
thermo 1000

# --- Trajectory ---
dump dump_nvt all custom 1000 nvt_softheat.dump id type mol x y z ix iy iz vx vy vz

# --- Restart Checkpointing ---
restart 10000 nvt_1.rst nvt_2.rst

# --- Initial Velocities (optional) ---
velocity all create 300.0 873034 mom yes rot yes dist gaussian

# --- SHAKE Constraints ---
# Constrains H-X bonds to allow 2fs timestep
# SHAKE disabled

# --- NVT Thermostat (Nose-Hoover) ---
# T_damp = 50.0 fs  (coupling timescale for heat exchange)
# Ramp: 300.0 K -> 610.0 K over 300000 steps
timestep 0.5
fix nvt_fix all nvt temp 300.0 610.0 50.0

run 300000
PPPM Kokkos initialization ...
  using 12-bit tables for long-range coulomb
  G vector (1/distance) = 0.28916327
  grid = 30 30 30
  stencil order = 5
  estimated absolute RMS force accuracy = 0.00033761496
  estimated relative force accuracy = 1.0167174e-06
  using double precision cuFFT
  3d grid and FFT values/proc = 50653 27000
Generated 6 of 6 mixed pair_coeff terms from sixthpower/sixthpower mixing rule
Neighbor list info ...
  update: every = 1 steps, delay = 0 steps, check = yes
  max neighbors/atom: 4000, page size: 100000
  master list distance cutoff = 11.5
  ghost atom cutoff = 11.5
  binsize = 11.5, bins = 5 5 5
  1 neighbor lists, perpetual/occasional/extra = 1 0 0
  (1) pair lj/class2/coul/long/kk, perpetual
      attributes: full, newton off, kokkos_device
      pair build: full/bin/kk/device
      stencil: full/bin/3d
      bin: kk/device
Per MPI rank memory allocation (min/avg/max) = 25.88 | 25.88 | 25.88 Mbytes
   Step          Time           Temp          Press         Enthalpy        TotEng         KinEng         PotEng         E_bond        E_angle        E_dihed        E_impro         E_vdwl         E_coul         E_long         E_tail         Volume           Lx             Ly             Lz          Density          Pxx            Pyy            Pzz      
         0   0              300            6147.1018      11365.933      1210.6545      3236.2655     -2025.611       266.74225      2113.3435     -2024.3732      44.513146      1057.0963     -1441.187      -2041.7459     -111.71592      113278         48.385495      48.385495      48.385495      0.54999999     6002.608       5964.0075      6474.6897    
      1000   500            297.4252       154.38884      1224.948       969.89096      3208.4896     -2238.5987      829.06194      2154.2391     -1922.0863      32.35517       211.83033     -1466.2191     -2077.7798     -111.71592      113278         48.385495      48.385495      48.385495      0.54999999     437.00809      417.37283     -391.21441    
      2000   1000           301.73477      215.78583      1532.109       1175.6215      3254.9794     -2079.358       866.74701      2007.1887     -1818.3948      26.996619      396.31463     -1476.7752     -2081.4349     -111.71592      113278         48.385495      48.385495      48.385495      0.54999999     312.97572     -54.90786       389.28961    
      3000   1500           300.66092     -54.575845      1189.004       1279.1657      3243.3952     -1964.2295      925.94543      2092.2331     -1886.1597      28.312959      462.16841     -1490.0607     -2096.669      -111.71592      113278         48.385495      48.385495      48.385495      0.54999999    -245.32601      22.702882      58.895597    
      4000   2000           301.98101     -179.86892      908.81101      1205.9623      3257.6358     -2051.6735      967.68967      1974.1533     -1903.6288      25.711804      481.5504      -1487.5928     -2109.5571     -111.71592      113278         48.385495      48.385495      48.385495      0.54999999    -607.40358     -279.46027      347.25708    
      5000   2500           306.34888     -537.39948      509.74535      1397.5526      3304.7543     -1907.2017      980.03918      2091.4422     -1897.6496      26.398071      510.66861     -1499.4158     -2118.6844     -111.71592      113278         48.385495      48.385495      48.385495      0.54999999    -625.50417     -637.62466     -349.06962    
      6000   3000           309.32339      487.3177       2120.1493      1315.0793      3336.842      -2021.7628      943.45193      2024.8362     -1911.3913      25.239278      533.74801     -1522.2436     -2115.4033     -111.71592      113278         48.385495      48.385495      48.385495      0.54999999     321.49967      323.50952      816.94393    
      7000   3500           303.33554      694.62605      2406.6931      1259.1407      3272.2478     -2013.107       969.02903      1985.3317     -1908.9019      23.566454      573.14237     -1530.4907     -2124.7839     -111.71592      113278         48.385495      48.385495      48.385495      0.54999999     1002.6897      383.81528      697.37321    
      8000   4000           303.65333      554.79547      2216.5605      1300.0143      3275.676      -1975.6617      1006.314       2004.7218     -1889.4369      23.790661      541.02887     -1529.9256     -2132.1545     -111.71592      113278         48.385495      48.385495      48.385495      0.54999999     538.63878      39.488424      1086.2592    
      9000   4500           309.77143     -65.856808      1323.0284      1431.8267      3341.6752     -1909.8485      1058.6131      2078.2156     -1891.7224      23.101833      480.58896     -1526.2089     -2132.4367     -111.71592      113278         48.385495      48.385495      48.385495      0.54999999    -138.62636     -279.0065       220.06244    
     10000   5000           310.42542      20.78063       1526.4915      1492.161       3348.7303     -1856.5692      1086.0375      2161.7934     -1940.0354      24.844877      485.33101     -1539.7221     -2134.8186     -111.71592      113278         48.385495      48.385495      48.385495      0.54999999    -91.344492      401.94959     -248.26321    
     11000   5500           308.75138      208.13038      1720.2296      1376.3892      3330.6714     -1954.2823      1069.411       2085.9034     -1929.8648      23.717068      474.31972     -1538.9732     -2138.7955     -111.71592      113278         48.385495      48.385495      48.385495      0.54999999    -198.35894      128.19311      694.55697    
     12000   6000           320.85431     -212.81173      1168.7543      1520.3285      3461.2324     -1940.9039      1082.183       2094.8226     -1889.6672      22.117256      430.88701     -1541.5392     -2139.7074     -111.71592      113278         48.385495      48.385495      48.385495      0.54999999    -186.17936     -749.24701      296.99118    
     13000   6500           313.88507     -436.21945      722.55526      1443.2087      3386.0514     -1942.8426      1130.348       2084.1404     -1932.518       23.146391      424.37957     -1539.3508     -2132.9883     -111.71592      113278         48.385495      48.385495      48.385495      0.54999999    -572.56732     -388.1173      -347.97373    
     14000   7000           315.13506     -100.21511      1385.823       1551.3827      3399.5357     -1848.1529      1176.5864      2074.5842     -1915.521       22.246536      471.71403     -1541.7997     -2135.9634     -111.71592      113278         48.385495      48.385495      48.385495      0.54999999     91.163824      233.03435     -624.84349    
     15000   7500           311.67061     -661.18165      322.61393      1414.9147      3362.1628     -1947.2481      1192.4413      2081.0205     -1933.555       22.847564      375.70399     -1543.5883     -2142.1182     -111.71592      113278         48.385495      48.385495      48.385495      0.54999999    -65.923932     -1099.0964     -818.52458    
     16000   8000           325.85167     -468.15649      833.38185      1606.7967      3515.1417     -1908.345       1229.5738      2094.4634     -1926.9422      22.196415      370.41975     -1549.3038     -2148.7523     -111.71592      113278         48.385495      48.385495      48.385495      0.54999999    -224.38815     -778.7102      -401.37114    
     17000   8500           322.83232     -530.37625      670.77841      1546.983       3482.5703     -1935.5873      1188.9651      2074.6666     -1944.3936      21.929522      418.46064     -1552.6895     -2142.5262     -111.71592      113278         48.385495      48.385495      48.385495      0.54999999    -618.50982     -627.546       -345.07291    
     18000   9000           312.89283     -53.671596      1376.467       1465.1348      3375.3475     -1910.2127      1154.5163      2171.7078     -1940.4898      22.084635      370.31096     -1545.5008     -2142.8418     -111.71592      113278         48.385495      48.385495      48.385495      0.54999999     537.70731     -35.722129     -662.99996    
     19000   9500           322.49467      251.29552      1926.5552      1511.4041      3478.9279     -1967.5238      1189.1552      2055.6388     -1917.28        19.43632       387.30849     -1559.9864     -2141.7962     -111.71592      113278         48.385495      48.385495      48.385495      0.54999999     308.73586     -28.632779      473.78348    
     20000   10000          323.25491     -363.44223      986.37611      1586.7985      3487.129      -1900.3305      1205.5288      2109.0675     -1887.5387      19.73686       357.24585     -1557.0945     -2147.2763     -111.71592      113278         48.385495      48.385495      48.385495      0.54999999    -126.55641     -470.75493     -493.01536    
     21000   10500          319.32646     -211.80728      1159.3245      1509.2394      3444.7506     -1935.5113      1198.8         2123.3993     -1902.6455      20.96417       321.90514     -1551.3011     -2146.6333     -111.71592      113278         48.385495      48.385495      48.385495      0.54999999    -388.68401     -63.730976     -183.00685    
     22000   11000          329.58006     -252.3464       1173.8347      1590.7219      3555.3618     -1964.6399      1195.0068      2177.5932     -1953.1301      21.261547      308.29293     -1558.1368     -2155.5274     -111.71592      113278         48.385495      48.385495      48.385495      0.54999999    -159.86484     -643.66154      46.487186    
     23000   11500          323.48214     -570.80809      588.05006      1531.0498      3489.5803     -1958.5305      1225.7417      2111.6985     -1924.0425      20.526645      322.89797     -1561.1244     -2154.2284     -111.71592      113278         48.385495      48.385495      48.385495      0.54999999    -709.04221     -650.09634     -353.28574    
     24000   12000          323.73547     -2.3920089      1550.3514      1554.3031      3492.3131     -1938.01        1228.3601      2189.9147     -1938.7067      21.610231      278.73503     -1560.5007     -2157.4227     -111.71592      113278         48.385495      48.385495      48.385495      0.54999999    -300.53906     -95.098528      388.46156    
     25000   12500          326.94873      353.46186      2182.4866      1598.5522      3526.9763     -1928.4241      1224.3541      2211.9314     -1971.9864      21.71349       299.18812     -1560.6905     -2152.9343     -111.71592      113278         48.385495      48.385495      48.385495      0.54999999     523.50094      107.28689      429.59775    
     26000   13000          328.26941      56.602109      1641.7445      1548.2353      3541.2232     -1992.9879      1254.2902      2098.4456     -1919.3325      19.110544      258.96157     -1554.2877     -2150.1756     -111.71592      113278         48.385495      48.385495      48.385495      0.54999999     134.03819      92.238999     -56.470861    
     27000   13500          326.10855      198.86714      1817.1178      1488.5807      3517.9128     -2029.3322      1219.0218      2142.3483     -1926.9225      18.855789      230.92051     -1559.5247     -2154.0313     -111.71592      113278         48.385495      48.385495      48.385495      0.54999999     107.23972      82.184371      407.17734    
     28000   14000          330.10402     -433.22401      834.73214      1550.437       3561.0141     -2010.5771      1307.4994      2119.7729     -1944.2835      20.183054      199.35557     -1561.3757     -2151.7288     -111.71592      113278         48.385495      48.385495      48.385495      0.54999999    -586.95998     -869.54885      156.8368     
     29000   14500          344.6253       151.49827      1976.0495      1725.7677      3717.6632     -1991.8955      1313.5981      2120.9497     -1951.4263      18.997834      226.26151     -1566.2753     -2154.001      -111.71592      113278         48.385495      48.385495      48.385495      0.54999999     78.620405      228.50889      147.36553    
     30000   15000          334.8157      -125.28888      1399.4681      1606.4508      3611.8416     -2005.3908      1325.3853      2113.5891     -1951.8414      19.420137      208.49207     -1561.1151     -2159.3209     -111.71592      113278         48.385495      48.385495      48.385495      0.54999999    -717.93088      184.93504      157.12919    
     31000   15500          340.19493     -188.6028       1374.4749      1686.0549      3669.8703     -1983.8154      1284.4742      2205.0349     -1960.7956      20.15092       191.19644     -1563.6964     -2160.1798     -111.71592      113278         48.385495      48.385495      48.385495      0.54999999    -534.94252     -42.51176       11.645882    
     32000   16000          333.79172     -495.58538      964.87878      1783.6073      3600.7954     -1817.188       1394.225       2239.2428     -1951.0749      20.732535      202.79793     -1560.5472     -2162.5641     -111.71592      113278         48.385495      48.385495      48.385495      0.54999999    -594.19656     -672.55456     -220.00502    
     33000   16500          339.58378     -336.09822      1146.2628      1701.5116      3663.2776     -1961.7659      1375.988       2095.6041     -1933.4364      18.871576      219.46845     -1570.7882     -2167.4735     -111.71592      113278         48.385495      48.385495      48.385495      0.54999999    -439.39431     -367.92961     -200.97072    
     34000   17000          332.78396     -826.4316       227.32388      1592.6247      3589.9241     -1997.2994      1337.39        2205.9787     -1980.2928      21.07588       160.22868     -1572.7233     -2168.9565     -111.71592      113278         48.385495      48.385495      48.385495      0.54999999    -1069.8914     -983.81529     -425.58809    
     35000   17500          334.85003     -680.27527      505.07749      1628.9218      3612.212      -1983.2902      1358.1451      2204.1639     -1978.0594      20.844568      148.50845     -1567.9314     -2168.9616     -111.71592      113278         48.385495      48.385495      48.385495      0.54999999    -731.57309     -848.15626     -461.09645    
     36000   18000          338.21485     -317.18363      1234.9653      1758.9664      3648.5102     -1889.5438      1369.4208      2235.6289     -1965.0683      20.828165      188.66912     -1575.698      -2163.3245     -111.71592      113278         48.385495      48.385495      48.385495      0.54999999    -1.8475306     -968.48165      18.7783      
     37000   18500          337.18926     -819.34662      273.99324      1627.5894      3637.4465     -2009.8571      1308.0095      2228.9772     -1944.6902      19.902145      99.266631     -1564.9377     -2156.3846     -111.71592      113278         48.385495      48.385495      48.385495      0.54999999    -435.38092     -1823.4727     -199.18628    
     38000   19000          341.60365     -432.87226      1068.9356      1784.0593      3685.0669     -1901.0076      1405.4083      2198.6412     -1928.362       18.374962      149.75206     -1579.6061     -2165.216      -111.71592      113278         48.385495      48.385495      48.385495      0.54999999    -597.9402      -925.43741      224.76084    
     39000   19500          339.35301      93.595103      1920.5225      1765.8993      3660.7881     -1894.8888      1415.4283      2257.3205     -1946.9839      19.452824      93.506279     -1571.041      -2162.5716     -111.71592      113278         48.385495      48.385495      48.385495      0.54999999    -354.35076      32.450128      602.68594    
     40000   20000          337.89463     -1233.642      -185.03815      1852.9919      3645.0557     -1792.0638      1446.4946      2324.4997     -1945.18        20.549928      89.729543     -1566.4975     -2161.6601     -111.71592      113278         48.385495      48.385495      48.385495      0.54999999    -2431.0777     -949.32012     -320.52808    
     41000   20500          340.71012      27.620814      1804.5423      1758.9115      3675.428      -1916.5164      1385.1505      2265.7495     -1971.0199      19.831076      122.08465     -1572.0618     -2166.2504     -111.71592      113278         48.385495      48.385495      48.385495      0.54999999    -28.750422      51.30473       60.308135    
     42000   21000          344.31662     -25.275278      1731.2353      1772.9911      3714.3333     -1941.3422      1378.2477      2214.5193     -1953.7768      17.761317      141.2504      -1572.4068     -2166.9373     -111.71592      113278         48.385495      48.385495      48.385495      0.54999999     350.58167     -794.98639      368.57889    
     43000   21500          346.61677     -481.26862      936.27221      1731.3489      3739.1463     -2007.7975      1352.0541      2190.0668     -1943.4935      18.626317      106.50979     -1571.8612     -2159.6998     -111.71592      113278         48.385495      48.385495      48.385495      0.54999999    -202.34037      81.351323     -1322.8168    
     44000   22000          342.43845     -5.9828385      1782.5865      1792.4704      3694.0725     -1901.602       1431.3095      2237.2497     -1940.4098      18.46919       91.443575     -1570.8312     -2168.833      -111.71592      113278         48.385495      48.385495      48.385495      0.54999999    -482.70378     -109.87254      574.6278     
     45000   22500          363.25242      22.995068      2027.0604      1989.0716      3918.6042     -1929.5326      1394.4227      2264.2281     -1948.0957      19.065467      67.793309     -1560.2307     -2166.7158     -111.71592      113278         48.385495      48.385495      48.385495      0.54999999     49.566056      400.2358      -380.81665    
     46000   23000          351.7803      -594.59787      864.19693      1846.4984      3794.8481     -1948.3497      1425.1429      2253.5954     -1957.061       19.830479      38.402512     -1564.2056     -2164.0544     -111.71592      113278         48.385495      48.385495      48.385495      0.54999999    -463.75798     -1120.539      -199.49663    
     47000   23500          349.50939     -226.70525      1408.0867      1782.6136      3770.3506     -1987.7369      1365.1154      2264.6376     -1936.6568      20.086986      39.048742     -1572.3023     -2167.6666     -111.71592      113278         48.385495      48.385495      48.385495      0.54999999    -128.83118     -405.61757     -145.66702    
     48000   24000          343.4147       139.24226      1996.9506      1766.9163      3704.6037     -1937.6874      1410.0109      2258.5249     -1947.4979      18.982492      64.536241     -1575.1582     -2167.0859     -111.71592      113278         48.385495      48.385495      48.385495      0.54999999     114.9147       807.51528     -504.70322    
     49000   24500          353.96304     -571.61652      1011.7359      1956.0712      3818.3946     -1862.3233      1457.3227      2285.9776     -1947.021       19.986567      60.181355     -1573.4036     -2165.367      -111.71592      113278         48.385495      48.385495      48.385495      0.54999999    -182.86242     -768.90183     -763.0853     
     50000   25000          344.44579     -116.35974      1580.8527      1773.084       3715.7268     -1942.6427      1450.5197      2213.6357     -1976.0172      19.330857      91.439418     -1577.2822     -2164.2689     -111.71592      113278         48.385495      48.385495      48.385495      0.54999999     37.169018      234.47212     -620.72036    
     51000   25500          352.01838     -311.36755      1460.399       1974.7917      3797.4165     -1822.6248      1441.1471      2331.5518     -1952.6552      19.657271      78.72066      -1574.8432     -2166.2032     -111.71592      113278         48.385495      48.385495      48.385495      0.54999999    -771.50406      88.622097     -251.22068    
     52000   26000          349.56474     -498.90647      1124.0913      1948.3065      3770.9477     -1822.6412      1459.5587      2329.1794     -1964.8021      19.456256      81.165071     -1584.436      -2162.7626     -111.71592      113278         48.385495      48.385495      48.385495      0.54999999    -662.90579     -747.89468     -85.918931    
     53000   26500          352.59643     -186.36801      1585.5576      1893.4456      3803.6521     -1910.2065      1458.4329      2285.6925     -1974.8338      20.000622      52.024876     -1587.3054     -2164.2183     -111.71592      113278         48.385495      48.385495      48.385495      0.54999999     20.623745     -587.6193       7.8915139    
     54000   27000          356.01917     -583.1426       1167.0336      2130.4105      3840.5752     -1710.1647      1519.4471      2390.1357     -1979.1161      19.546895      86.897871     -1583.3809     -2163.6952     -111.71592      113278         48.385495      48.385495      48.385495      0.54999999    -829.06489     -924.36442      4.0014965    
     55000   27500          359.44617      28.859691      2051.1559      2003.4784      3877.5441     -1874.0657      1422.798       2362.4588     -1986.4077      21.180442      56.369091     -1580.9495     -2169.5149     -111.71592      113278         48.385495      48.385495      48.385495      0.54999999    -426.88232      862.86421     -349.40281    
     56000   28000          348.87158     -560.43942      981.23658      1907.1068      3763.4701     -1856.3633      1454.5448      2395.5861     -1991.1147      19.159985      4.3511484     -1571.7097     -2167.181      -111.71592      113278         48.385495      48.385495      48.385495      0.54999999    -583.09757     -913.58054     -184.64013    
     57000   28500          361.54293     -746.18507      739.3186       1972.0487      3900.163      -1928.1143      1465.9589      2278.3693     -1972.333       20.393703      24.180884     -1575.2623     -2169.4218     -111.71592      113278         48.385495      48.385495      48.385495      0.54999999    -1089.5042     -701.84062     -447.21042    
     58000   29000          356.86329     -509.96804      1188.0653      2030.5547      3849.6811     -1819.1264      1553.6341      2357.0609     -1974.9905      20.867662     -18.113499     -1582.7223     -2174.8628     -111.71592      113278         48.385495      48.385495      48.385495      0.54999999    -338.77056     -688.3379      -502.79566    
     59000   29500          358.78089      313.84783      2428.5708      1910.0805      3870.3674     -1960.2869      1444.8914      2326.2876     -1972.5337      19.713326     -18.768806     -1588.388      -2171.4888     -111.71592      113278         48.385495      48.385495      48.385495      0.54999999    -207.35565      794.37931      354.51982    
     60000   30000          365.0553      -425.58011      1326.6684      2029.7452      3938.0529     -1908.3077      1472.1658      2322.4142     -1988.0532      19.333369      26.788247     -1588.744      -2172.2121     -111.71592      113278         48.385495      48.385495      48.385495      0.54999999    -570.7761      -352.0012      -353.96302    
     61000   30500          361.86847      398.35623      2686.3766      2028.2748      3903.6748     -1875.4         1487.969       2321.4588     -1957.6719      19.189994      20.65112      -1593.8813     -2173.1157     -111.71592      113278         48.385495      48.385495      48.385495      0.54999999     409.34588      804.92685     -19.204042    
     62000   31000          355.75476     -101.99395      1951.0455      2119.5439      3837.7228     -1718.179       1507.8069      2478.5472     -1998.8375      20.940268      20.428994     -1578.0101     -2169.0546     -111.71592      113278         48.385495      48.385495      48.385495      0.54999999    -659.87672      201.36003      152.53483    
     63000   31500          369.83048     -505.04877      1258.6926      2093.0551      3989.5653     -1896.5102      1504.6234      2298.5951     -1967.0252      18.365924      16.934219     -1592.6647     -2175.3389     -111.71592      113278         48.385495      48.385495      48.385495      0.54999999    -211.96475     -285.91028     -1017.2713    
     64000   32000          369.73747     -63.352286      2044.7596      2149.4203      3988.5621     -1839.1418      1468.1083      2375.7004     -1974.9423      19.666372      32.945999     -1583.7931     -2176.8275     -111.71592      113278         48.385495      48.385495      48.385495      0.54999999    -258.12111     -458.42351      526.48776    
     65000   32500          366.06302      49.126988      2347.1801      2266.0202      3948.9237     -1682.9035      1568.0883      2435.0288     -1965.9848      19.327699      17.441127     -1581.587      -2175.2177     -111.71592      113278         48.385495      48.385495      48.385495      0.54999999     249.39156     -591.49178      489.48118    
     66000   33000          369.17578      41.03139       2291.8901      2224.1045      3982.5027     -1758.3983      1584.3509      2340.3375     -1953.5847      19.367977      25.293815     -1595.2177     -2178.9461     -111.71592      113278         48.385495      48.385495      48.385495      0.54999999     54.653311     -394.48431      462.92516    
     67000   33500          365.48735      49.77629       2212.031       2129.7984      3942.7136     -1812.9152      1485.8559      2361.9572     -1968.2609      19.242632      55.325477     -1594.8181     -2172.2175     -111.71592      113278         48.385495      48.385495      48.385495      0.54999999    -300.18027     -490.40078      939.90992    
     68000   34000          366.82179     -232.01854      1847.8359      2231.1406      3957.109      -1725.9684      1523.4259      2406.452      -1970.2536      19.012397      59.062295     -1592.9395     -2170.7279     -111.71592      113278         48.385495      48.385495      48.385495      0.54999999    -46.081471     -264.71261     -385.26153    
     69000   34500          368.7374      -828.97776      942.72786      2312.2351      3977.7737     -1665.5386      1578.5845      2432.4493     -1965.3071      20.22185       40.093991     -1595.577      -2176.0042     -111.71592      113278         48.385495      48.385495      48.385495      0.54999999    -794.14093     -966.54538     -726.24698    
     70000   35000          376.11083      119.47797      2549.5813      2352.1985      4057.315      -1705.1165      1584.8813      2374.4152     -1962.6065      18.758975      44.009561     -1590.1627     -2174.4124     -111.71592      113278         48.385495      48.385495      48.385495      0.54999999     500.7004      -24.014352     -118.25213    
     71000   35500          379.84123     -345.54142      1722.6306      2293.4801      4097.5569     -1804.0768      1546.0481      2326.6974     -1962.7108      18.79279       30.972753     -1585.6305     -2178.2467     -111.71592      113278         48.385495      48.385495      48.385495      0.54999999    -83.167949     -527.57256     -425.88376    
     72000   36000          372.54492     -280.54113      1955.2783      2418.7444      4018.8476     -1600.1032      1654.3272      2402.9236     -1932.4544      18.747894      19.034991     -1592.9713     -2169.7111     -111.71592      113278         48.385495      48.385495      48.385495      0.54999999    -535.66782      823.32621     -1129.2818    
     73000   36500          372.05735     -236.86318      1860.6836      2251.9918      4013.5878     -1761.596       1581.4761      2411.9398     -1982.9757      20.120279     -32.892677     -1586.9938     -2172.2701     -111.71592      113278         48.385495      48.385495      48.385495      0.54999999    -728.76778      155.64781     -137.46957    
     74000   37000          371.43444      67.378898      2493.0066      2381.6937      4006.8682     -1625.1745      1581.1094      2465.0291     -1980.0201      19.126186      57.834717     -1592.2366     -2176.0172     -111.71592      113278         48.385495      48.385495      48.385495      0.54999999    -82.416472     -381.83237      666.38553    
     75000   37500          374.96046     -141.72696      2147.5899      2381.729       4044.9053     -1663.1763      1570.7714      2427.4708     -1976.9605      18.880076      61.770932     -1596.4201     -2168.6889     -111.71592      113278         48.385495      48.385495      48.385495      0.54999999    -662.80413      855.41055     -617.78732    
     76000   38000          373.9178      -166.23348      2047.3512      2321.9761      4033.6575     -1711.6814      1556.2094      2405.4568     -1983.8404      18.768897      56.63744      -1591.915      -2172.9986     -111.71592      113278         48.385495      48.385495      48.385495      0.54999999     205.58994     -659.19173     -45.098637    
     77000   38500          371.60357     -877.88667      945.4319       2395.7388      4008.6927     -1612.9539      1632.4186      2415.1991     -1962.0116      17.919056      56.445772     -1597.2604     -2175.6644     -111.71592      113278         48.385495      48.385495      48.385495      0.54999999    -1442.9397     -140.33367     -1050.3866    
     78000   39000          385.77032     -287.05565      1908.1443      2382.3727      4161.5172     -1779.1445      1521.0589      2429.325      -1995.5777      18.943712      15.253184     -1592.6946     -2175.453      -111.71592      113278         48.385495      48.385495      48.385495      0.54999999    -20.006782     -796.83031     -44.329864    
     79000   39500          384.73927     -723.04197      1258.2168      2452.7136      4150.3947     -1697.6811      1594.8435      2433.0145     -1988.0761      19.754037      20.652368     -1602.3549     -2175.5145     -111.71592      113278         48.385495      48.385495      48.385495      0.54999999    -1073.309      -165.86296     -929.95397    
     80000   40000          392.73799     -327.27121      2085.2644      2625.9306      4236.6813     -1610.7507      1653.4403      2421.1344     -1995.3991      18.884913      45.542908     -1585.7533     -2168.6008     -111.71592      113278         48.385495      48.385495      48.385495      0.54999999    -474.4518      -903.11512      395.7533     
     81000   40500          384.51455     -257.51509      2046.4336      2471.8597      4147.9705     -1676.1109      1573.8606      2465.748      -1971.372       18.856155     -8.5716683     -1582.6367     -2171.9952     -111.71592      113278         48.385495      48.385495      48.385495      0.54999999     169.51363     -123.33968     -818.71921    
     82000   41000          384.52822     -450.68167      1681.1166      2425.6623      4148.118      -1722.4557      1588.0483      2441.3034     -1995.8032      18.697693     -8.777729      -1595.5694     -2170.3549     -111.71592      113278         48.385495      48.385495      48.385495      0.54999999    -750.68205     -220.44826     -380.91469    
     83000   41500          379.09403      205.86677      2748.0197      2407.9189      4089.4964     -1681.5775      1600.9844      2390.1281     -1937.5077      18.043699     -6.8101044     -1583.821      -2162.5949     -111.71592      113278         48.385495      48.385495      48.385495      0.54999999     368.06521      409.2938      -159.7587     
     84000   42000          386.91791     -140.67768      2280.7481      2513.1537      4173.8969     -1660.7432      1550.1784      2489.2124     -1951.392       19.619213     -24.424885     -1582.4702     -2161.4661     -111.71592      113278         48.385495      48.385495      48.385495      0.54999999     237.63518      67.789389     -727.45761    
     85000   42500          384.07723     -207.99901      2258.7469      2602.3703      4143.2529     -1540.8826      1660.1683      2540.5243     -1981.7248      20.236633     -25.099306     -1584.0975     -2170.8902     -111.71592      113278         48.385495      48.385495      48.385495      0.54999999     168.24869      484.87247     -1277.1182    
     86000   43000          397.61219     -246.19879      2367.7091      2774.4402      4289.262      -1514.8218      1752.621       2423.9987     -1946.4414      19.261493     -0.49556307    -1587.3156     -2176.4504     -111.71592      113278         48.385495      48.385495      48.385495      0.54999999     160.17059     -231.83892     -666.92805    
     87000   43500          390.05546      544.31456      3568.5429      2669.3116      4207.7434     -1538.4318      1641.0482      2479.5156     -1968.1134      19.511831      61.512221     -1597.0654     -2174.8407     -111.71592      113278         48.385495      48.385495      48.385495      0.54999999     647.31613      399.76277      585.86476    
     88000   44000          390.43842      30.689863      2630.6294      2579.9284      4211.8746     -1631.9462      1649.669       2453.2013     -1970.0125      19.304132     -7.2561323     -1598.163      -2178.6889     -111.71592      113278         48.385495      48.385495      48.385495      0.54999999    -214.67466     -201.49158      508.23583    
     89000   44500          397.13987     -90.899296      2581.6118      2731.7814      4284.1668     -1552.3854      1662.3348      2535.3602     -1992.2123      19.406028     -8.2263463     -1595.0069     -2174.0408     -111.71592      113278         48.385495      48.385495      48.385495      0.54999999     114.10764      211.31985     -598.12538    
     90000   45000          390.68875     -178.19518      2247.371       2541.7571      4214.575      -1672.8179      1612.7008      2467.4202     -1985.4113      19.564809     -26.922416     -1589.9235     -2170.2465     -111.71592      113278         48.385495      48.385495      48.385495      0.54999999    -46.195154      506.92552     -995.31591    
     91000   45500          395.38947      515.52811      3542.6176      2690.9428      4265.2843     -1574.3415      1633.4779      2492.4277     -1965.987       19.256343      17.696459     -1598.3512     -2172.8618     -111.71592      113278         48.385495      48.385495      48.385495      0.54999999     188.1036       648.77007      709.71065    
     92000   46000          388.81391     -307.94837      2218.8882      2727.6323      4194.3501     -1466.7178      1712.834       2529.4658     -1985.4064      18.543663      15.533021     -1589.7795     -2167.9084     -111.71592      113278         48.385495      48.385495      48.385495      0.54999999    -482.49334     -286.97857     -154.37319    
     93000   46500          391.49115      35.017717      2802.5949      2744.7442      4223.231      -1478.4869      1718.3634      2512.6538     -2003.5456      20.032393      33.824481     -1590.0275     -2169.7878     -111.71592      113278         48.385495      48.385495      48.385495      0.54999999    -119.68596      101.01618      123.72292    
     94000   47000          388.3406      -645.60266      1638.3599      2704.9235      4189.2442     -1484.3207      1722.0541      2495.321      -1959.5817      19.243045      0.6635262     -1586.1771     -2175.8436     -111.71592      113278         48.385495      48.385495      48.385495      0.54999999    -479.59871      77.338989     -1534.5482    
     95000   47500          411.03958     -292.49158      2239.3693      2722.5781      4434.1106     -1711.5325      1653.81        2402.8769     -1984.3946      18.493283     -42.056578     -1588.2346     -2172.0268     -111.71592      113278         48.385495      48.385495      48.385495      0.54999999    -65.12032      -268.58049     -543.77394    
     96000   48000          400.62039     -1607.3281      222.31257      2877.6884      4321.7131     -1444.0247      1712.4171      2529.2226     -1961.1173      18.665463      12.862525     -1587.6653     -2168.4098     -111.71592      113278         48.385495      48.385495      48.385495      0.54999999    -1612.6451     -1155.6172     -2053.7221    
     97000   48500          394.98289     -556.39918      1721.8327      2641.0283      4260.8983     -1619.87        1698.4156      2379.4965     -1972.6239      18.654727      25.188979     -1595.1421     -2173.8597     -111.71592      113278         48.385495      48.385495      48.385495      0.54999999    -65.838277     -130.24482     -1473.1144    
     98000   49000          392.11709      34.685045      2809.862       2752.5608      4229.9833     -1477.4225      1717.7185      2489.4978     -1952.0225      18.568169      9.9714124     -1588.2922     -2172.8638     -111.71592      113278         48.385495      48.385495      48.385495      0.54999999    -54.65505      -326.1078       484.81798    
     99000   49500          403.19103      187.58196      3183.761       2873.8674      4349.444      -1475.5766      1707.4983      2502.164      -1961.4244      18.054607      24.297284     -1593.3044     -2172.862      -111.71592      113278         48.385495      48.385495      48.385495      0.54999999     135.30815      284.67079      142.76694    
    100000   50000          399.84402     -285.04916      2428.1574      2899.071       4313.338      -1414.2669      1758.0708      2559.0421     -1964.0462      18.66579      -31.971619     -1584.4872     -2169.5406     -111.71592      113278         48.385495      48.385495      48.385495      0.54999999    -68.10262      -486.38291     -300.66196    
    101000   50500          402.56582      124.7789       3208.3062      3002.166       4342.6995     -1340.5335      1684.2625      2632.9408     -1934.796       18.771388      14.049162     -1588.0471     -2167.7142     -111.71592      113278         48.385495      48.385495      48.385495      0.54999999     596.06323     -161.89871     -59.82782     
    102000   51000          399.20558     -121.46851      2693.8028      2894.4741      4306.4508     -1411.9767      1730.701       2515.7119     -1943.5041      17.735707      17.931622     -1582.2345     -2168.3184     -111.71592      113278         48.385495      48.385495      48.385495      0.54999999    -94.501193     -921.44493      651.54059    
    103000   51500          412.46688     -604.29687      2097.1812      3095.5058      4449.5078     -1354.0019      1787.4155      2604.186      -1963.1862      19.379707     -39.848744     -1590.6853     -2171.2629     -111.71592      113278         48.385495      48.385495      48.385495      0.54999999    -409.1162      -503.46034     -900.31406    
    104000   52000          406.84906     -472.55098      2091.783       2872.4577      4388.9052     -1516.4475      1725.7678      2524.1339     -1969.603       20.05766      -44.66098      -1596.9299     -2175.213      -111.71592      113278         48.385495      48.385495      48.385495      0.54999999    -231.587        344.05584     -1530.1218    
    105000   52500          408.47816      38.691645      3014.3915      2950.4712      4406.4792     -1456.008       1670.3744      2585.7876     -1968.6014      20.113373      0.86310527    -1593.1558     -2171.3892     -111.71592      113278         48.385495      48.385495      48.385495      0.54999999    -265.9243       147.19592      234.80333    
    106000   53000          403.61376     -454.15857      2242.0104      2992.3001      4354.0042     -1361.7041      1733.3077      2588.685      -1954.5033      19.452727      9.730103      -1586.6288     -2171.7476     -111.71592      113278         48.385495      48.385495      48.385495      0.54999999    -710.22882     -273.21709     -379.02981    
    107000   53500          429.8822      -278.37036      2810.7949      3270.6748      4637.3764     -1366.7016      1726.2971      2608.956      -1966.3615      20.068405      3.1259958     -1589.7196     -2169.068      -111.71592      113278         48.385495      48.385495      48.385495      0.54999999    -69.495916     -159.65987     -605.95529    
    108000   54000          416.12812      101.51868      3232.6008      3064.8875      4489.0035     -1424.116       1714.0491      2556.5411     -1952.032       21.080448     -3.5635751     -1593.4495     -2166.7416     -111.71592      113278         48.385495      48.385495      48.385495      0.54999999    -388.27628      297.16908      395.66325    
    109000   54500          410.81912     -215.41575      2633.7281      2989.6043      4431.7325     -1442.1282      1697.3225      2589.8602     -1995.2471      20.03346       5.7732483     -1587.3755     -2172.4949     -111.71592      113278         48.385495      48.385495      48.385495      0.54999999    -169.94485     -32.550525     -443.75188    
    110000   55000          413.10329     -193.43296      2885.5333      3205.093       4456.3731     -1251.2801      1774.6126      2666.5589     -1978.9276      19.697031      36.366557     -1590.4416     -2179.146      -111.71592      113278         48.385495      48.385495      48.385495      0.54999999    -625.18636      227.82495     -182.93747    
    111000   55500          414.51361     -224.6167       2716.3562      3087.4328      4471.587      -1384.1542      1763.7658      2564.7364     -1958.7723      19.855322     -4.3861871     -1590.2484     -2179.1049     -111.71592      113278         48.385495      48.385495      48.385495      0.54999999    -425.13861     -266.82681      18.115325    
    112000   56000          419.63228     -51.928727      3315.7299      3401.5184      4526.8048     -1125.2864      1840.6692      2676.3203     -1941.3503      20.808493      30.409424     -1580.7763     -2171.3673     -111.71592      113278         48.385495      48.385495      48.385495      0.54999999     128.88853      459.87901     -744.55372    
    113000   56500          426.56595     -1066.8879      1516.1365      3278.6817      4601.6022     -1322.9205      1776.1322      2550.9979     -1933.6037      18.517264      10.617628     -1581.5314     -2164.0504     -111.71592      113278         48.385495      48.385495      48.385495      0.54999999    -1417.4871     -889.29781     -893.87892    
    114000   57000          409.33413     -580.38566      2206.145       3164.9673      4415.713      -1250.7457      1779.5479      2651.6018     -1950.9154      18.991513      5.5409502     -1585.0314     -2170.4811     -111.71592      113278         48.385495      48.385495      48.385495      0.54999999     58.805568     -327.65422     -1472.3083    
    115000   57500          432.52015     -134.53513      3144.7752      3367.0331      4665.8334     -1298.8003      1748.7844      2628.7361     -1956.9169      19.463401      7.054797      -1580.321      -2165.6012     -111.71592      113278         48.385495      48.385495      48.385495      0.54999999    -343.34744     -249.68823      189.43027    
    116000   58000          409.05718     -838.8468       1831.537       3217.3483      4412.7254     -1195.3771      1841.2208      2646.4261     -1953.5185      20.007292      12.121665     -1589.5885     -2172.0458     -111.71592      113278         48.385495      48.385495      48.385495      0.54999999    -890.16844     -956.96466     -669.40731    
    117000   58500          428.48474     -1220.6871      1340.9471      3357.5752      4622.3012     -1264.726       1753.0767      2629.9954     -1937.6039      19.410876      16.379454     -1580.4224     -2165.5621     -111.71592      113278         48.385495      48.385495      48.385495      0.54999999    -1768.1625     -1514.3112     -379.58761    
    118000   59000          417.51002     -530.78868      2409.2135      3286.0995      4503.9108     -1217.8114      1709.7051      2708.1589     -1943.1894      19.947963      44.905852     -1590.5691     -2166.7707     -111.71592      113278         48.385495      48.385495      48.385495      0.54999999    -169.44165     -762.29549     -660.6289     
    119000   59500          419.85906     -367.37193      2626.3382      3233.2525      4529.2513     -1295.9988      1775.9402      2631.9494     -1971.1246      19.688488     -8.1023389     -1582.1028     -2162.2471     -111.71592      113278         48.385495      48.385495      48.385495      0.54999999     114.80764     -285.82564     -931.09781    
    120000   60000          420.41716     -697.60238      2158.7017      3311.1711      4535.2718     -1224.1007      1797.0108      2679.7468     -1939.8903      20.136459     -24.377618     -1587.2013     -2169.5255     -111.71592      113278         48.385495      48.385495      48.385495      0.54999999    -1085.9725      60.21327      -1067.0479    
    121000   60500          429.49747      170.83331      3601.5702      3319.3461      4633.2261     -1313.88        1687.4688      2722.471      -1922.9099      20.16015      -58.906603     -1592.3821     -2169.7813     -111.71592      113278         48.385495      48.385495      48.385495      0.54999999     608.29287      106.59438     -202.38732    
    122000   61000          433.36726     -458.83619      2553.4665      3311.4838      4674.9716     -1363.4878      1725.9895      2597.2343     -1917.4875      19.242711     -31.616271     -1586.5073     -2170.3432     -111.71592      113278         48.385495      48.385495      48.385495      0.54999999    -394.29598     -505.5737      -476.63889    
    123000   61500          434.3216      -76.928279      3328.3264      3455.4152      4685.2667     -1229.8514      1739.8563      2679.2216     -1934.9819      19.683595      20.041605     -1585.2216     -2168.451      -111.71592      113278         48.385495      48.385495      48.385495      0.54999999    -501.0955      -308.10004      578.41071    
    124000   62000          432.67911     -42.736404      3464.6489      3535.2513      4667.5482     -1132.2969      1809.2548      2690.1345     -1929.8541      19.453492      37.5548       -1583.611      -2175.2295     -111.71592      113278         48.385495      48.385495      48.385495      0.54999999     355.30394     -293.85686     -189.6563     
    125000   62500          427.87221     -794.04244      2137.107       3448.8995      4615.6935     -1166.794       1802.1155      2651.0102     -1918.3378      19.346772      25.445132     -1575.4037     -2170.9701     -111.71592      113278         48.385495      48.385495      48.385495      0.54999999    -644.88498     -592.88305     -1144.3593    
    126000   63000          423.99744     -413.89284      2722.6282      3406.3972      4573.8942     -1167.4971      1825.5633      2652.8436     -1952.0346      20.131468      36.155259     -1583.7893     -2166.3667     -111.71592      113278         48.385495      48.385495      48.385495      0.54999999    -408.74759     -544.41794     -288.51299    
    127000   63500          436.32344      30.693768      3579.0928      3528.3854      4706.8616     -1178.4762      1838.2753      2606.4766     -1934.2052      19.369749      62.65346      -1594.5582     -2176.488      -111.71592      113278         48.385495      48.385495      48.385495      0.54999999     853.14605     -143.98536     -617.07939    
    128000   64000          428.38516     -22.160638      3423.3944      3460.0048      4621.227      -1161.2223      1801.2103      2708.8567     -1942.1313      20.117511      0.51572344    -1583.5642     -2166.2271     -111.71592      113278         48.385495      48.385495      48.385495      0.54999999    -403.73425      105.22819      232.02415    
    129000   64500          435.91959      14.744392      3602.2061      3577.8478      4702.505      -1124.6573      1762.4395      2788.9821     -1953.8568      21.601414      12.416318     -1589.4737     -2166.7661     -111.71592      113278         48.385495      48.385495      48.385495      0.54999999    -27.629788     -112.85142      184.71439    
    130000   65000          444.92934      48.996808      3725.1684      3644.2235      4799.6982     -1155.4747      1749.5613      2744.8003     -1932.448       19.760141      18.737449     -1585.2732     -2170.6127     -111.71592      113278         48.385495      48.385495      48.385495      0.54999999     190.06207      215.1376      -258.20924    
    131000   65500          434.76045      74.683019      3709.8753      3586.4957      4690.0008     -1103.5051      1806.3934      2745.0143     -1941.0742      20.337057      30.256164     -1589.0589     -2175.373      -111.71592      113278         48.385495      48.385495      48.385495      0.54999999     44.526995     -81.759705      261.28177    
    132000   66000          438.35173     -305.3931       3167.7352      3672.2578      4728.7419     -1056.484       1897.6822      2676.051      -1953.7657      19.884329      59.566643     -1586.2174     -2169.6851     -111.71592      113278         48.385495      48.385495      48.385495      0.54999999     23.343791     -294.11903     -645.40407    
    133000   66500          432.94234      611.27617      4589.6811      3579.8263      4670.3878     -1090.5615      1828.9911      2714.6856     -1962.0195      20.740881      71.073546     -1589.7983     -2174.2349     -111.71592      113278         48.385495      48.385495      48.385495      0.54999999     455.15896      639.85387      738.81569    
    134000   67000          432.7366       8.5887958      3676.7071      3662.5181      4668.1684     -1005.6503      1923.1059      2674.3236     -1939.5954      18.578659      81.395678     -1587.7366     -2175.7221     -111.71592      113278         48.385495      48.385495      48.385495      0.54999999     329.26716      142.34509     -445.84586    
    135000   67500          448.36934     -115.87211      3602.6096      3794.0354      4836.8073     -1042.7719      1901.1849      2695.7204     -1971.6111      19.653659      62.230753     -1579.2948     -2170.6557     -111.71592      113278         48.385495      48.385495      48.385495      0.54999999     270.0691      -195.70952     -421.97591    
    136000   68000          434.14214      387.92248      4276.0103      3635.1455      4683.3307     -1048.1853      1837.3529      2683.937      -1955.0261      18.07652       136.46995     -1596.5659     -2172.4297     -111.71592      113278         48.385495      48.385495      48.385495      0.54999999     474.88324     -299.53937      988.42357    
    137000   68500          436.95957      184.51409      3994.0103      3689.185       4713.7238     -1024.5389      1801.6872      2739.8213     -1939.6983      19.031796      116.00949     -1590.3766     -2171.0138     -111.71592      113278         48.385495      48.385495      48.385495      0.54999999     793.88034      113.05457     -353.39265    
    138000   69000          431.30374     -753.81414      2359.3146      3604.6482      4652.7113     -1048.063       1879.5789      2733.2698     -1951.892       19.605772      29.372823     -1586.7739     -2171.2244     -111.71592      113278         48.385495      48.385495      48.385495      0.54999999    -845.72527     -1078.8263     -336.89088    
    139000   69500          449.81893     -524.02006      2853.4503      3719.1542      4852.4449     -1133.2907      1849.017       2686.6316     -1974.8333      19.351006      61.168116     -1597.2389     -2177.3862     -111.71592      113278         48.385495      48.385495      48.385495      0.54999999    -2.1449295     -438.29184     -1131.6234    
    140000   70000          441.36023      105.09605      3991.9959      3818.3727      4761.1962     -942.82356      1913.6584      2708.4878     -1923.0131      19.695145      86.07217      -1578.7124     -2169.0115     -111.71592      113278         48.385495      48.385495      48.385495      0.54999999    -745.2463       282.19648      778.33797    
    141000   70500          434.19816     -522.44256      2816.1892      3679.2869      4683.9351     -1004.6481      1889.458       2780.8518     -1966.545       20.832925      29.141818     -1588.8162     -2169.5714     -111.71592      113278         48.385495      48.385495      48.385495      0.54999999     260.98028     -901.02115     -927.2868     
    142000   71000          451.98555      71.615387      3970.0111      3851.6994      4875.8174     -1024.118       1890.631       2703.6967     -1951.115       19.487583      65.568004     -1585.6424     -2166.7441     -111.71592      113278         48.385495      48.385495      48.385495      0.54999999    -524.99167     -212.39944      952.23728    
    143000   71500          452.31391     -455.95834      3112.9379      3866.2009      4879.3596     -1013.1587      1929.3781      2696.7541     -1935.3029      18.856986      30.489009     -1586.0796     -2167.2545     -111.71592      113278         48.385495      48.385495      48.385495      0.54999999    -17.123622     -791.74038     -559.01103    
    144000   72000          455.39523     -388.10832      3256.0553      3897.2271      4912.5995     -1015.3724      1854.7154      2779.9103     -1950.9261      19.855427      44.542476     -1594.7721     -2168.6979     -111.71592      113278         48.385495      48.385495      48.385495      0.54999999     17.291047     -929.13338     -252.48264    
    145000   72500          454.81155      23.667283      3950.2544      3911.155       4906.3031     -995.14804      1909.2263      2706.7089     -1965.4417      18.8872        97.361637     -1595.6899     -2166.2004     -111.71592      113278         48.385495      48.385495      48.385495      0.54999999     399.3076      -240.27231     -88.033445    
    146000   73000          442.56179     -675.50939      2706.1668      3822.1376      4774.1581     -952.02047      1941.6675      2714.2654     -1951.8194      19.394071      62.416057     -1572.2976     -2165.6465     -111.71592      113278         48.385495      48.385495      48.385495      0.54999999    -1257.8397     -697.15711     -71.531365    
    147000   73500          450.14828     -1072.9304      2142.655       3915.1826      4855.9978     -940.81516      2042.616       2692.2287     -1933.6318      19.78038      -23.937955     -1572.936      -2164.9345     -111.71592      113278         48.385495      48.385495      48.385495      0.54999999    -931.60256     -677.74087     -1609.4479    
    148000   74000          459.98479     -615.14436      2994.9538      4011.199       4962.1097     -950.91068      1877.9078      2849.2712     -1941.4308      19.804135      7.5404763     -1592.1254     -2171.8781     -111.71592      113278         48.385495      48.385495      48.385495      0.54999999    -500.74044     -917.72122     -426.9714     
    149000   74500          450.42591     -418.82         3172.9391      3864.8479      4858.9927     -994.14476      1894.6855      2765.1708     -1957.3025      19.982784      31.130717     -1580.1214     -2167.6907     -111.71592      113278         48.385495      48.385495      48.385495      0.54999999    -150.83609     -927.16949     -178.45442    
    150000   75000          442.8597      -805.05236      2462.3797      3792.3611      4777.3719     -985.01072      1924.4462      2782.4097     -1967.5924      21.043219      5.156318      -1579.6142     -2170.8596     -111.71592      113278         48.385495      48.385495      48.385495      0.54999999    -1176.9722      121.69935     -1359.8842    
    151000   75500          457.35369     -857.28385      2624.6474      4040.9175      4933.7266     -892.80903      1932.3076      2835.877      -1946.7498      20.256767      25.374449     -1586.1938     -2173.6812     -111.71592      113278         48.385495      48.385495      48.385495      0.54999999    -730.31751     -960.077       -881.45704    
    152000   76000          463.80619     -647.94894      3101.7141      4172.1539      5003.3332     -831.17925      2013.7577      2869.2462     -1970.8082      21.549093     -6.997705      -1585.1865     -2172.7399     -111.71592      113278         48.385495      48.385495      48.385495      0.54999999    -590.05565     -1056.362      -297.42916    
    153000   76500          462.37599      141.478        4287.0349      4053.3071      4987.9048     -934.59775      1953.4677      2758.0969     -1968.9951      20.049167      47.375702     -1576.4529     -2168.1392     -111.71592      113278         48.385495      48.385495      48.385495      0.54999999    -322.57253      532.96228      214.04425    
    154000   77000          461.45059      337.61366      4730.2503      4172.4979      4977.9221     -805.42416      1910.3171      2873.3405     -1951.4077      19.59886       98.3757       -1584.9941     -2170.6545     -111.71592      113278         48.385495      48.385495      48.385495      0.54999999     547.23858      731.52934     -265.92695    
    155000   77500          455.4957      -179.14153      3785.4361      4081.3857      4913.6834     -832.29773      1947.001       2834.4162     -1967.8668      19.437796      81.330428     -1578.254      -2168.3623     -111.71592      113278         48.385495      48.385495      48.385495      0.54999999     8.0352092     -897.75095      352.29116    
    156000   78000          457.48913     -491.42059      3442.9311      4254.7792      4935.1875     -680.40831      1991.0816      2923.3172     -1944.1445      21.774819      79.385479     -1581.7357     -2170.0872     -111.71592      113278         48.385495      48.385495      48.385495      0.54999999    -400.82345     -857.68009     -215.75823    
    157000   78500          468.86001     -253.81975      3850.8223      4270.1435      5057.8515     -787.70798      1972.6867      2862.1734     -1960.459       20.032976      71.70393      -1582.3388     -2171.5072     -111.71592      113278         48.385495      48.385495      48.385495      0.54999999    -1222.3254      539.11751     -78.251379    
    158000   79000          459.20025     -476.19571      3359.0962      4145.7921      4953.6464     -807.85428      2019.7628      2802.2659     -1948.6707      19.636855      62.010283     -1589.4853     -2173.3741     -111.71592      113278         48.385495      48.385495      48.385495      0.54999999    -122.74054     -922.60913     -383.23746    
    159000   79500          464.35449      171.25644      4529.9184      4246.9953      5009.248      -762.25267      1914.0108      2922.403      -1952.4802      20.776856      97.231748     -1592.2177     -2171.9773     -111.71592      113278         48.385495      48.385495      48.385495      0.54999999     271.90323     -123.42349      365.28957    
    160000   80000          461.80094     -50.789166      4209.0407      4292.9466      4981.7015     -688.75492      2013.0229      2910.3481     -1954.3658      21.004712      72.08969      -1580.7969     -2170.0575     -111.71592      113278         48.385495      48.385495      48.385495      0.54999999    -203.29479     -273.96098      324.88827    
    161000   80500          473.10008     -124.82403      4167.1216      4373.3363      5103.5915     -730.25524      2012.7388      2828.6694     -1940.9901      19.712033      106.66871     -1586.5278     -2170.5263     -111.71592      113278         48.385495      48.385495      48.385495      0.54999999    -25.399688     -945.51972      596.44732    
    162000   81000          465.0039       80.959975      4292.8513      4159.1019      5016.2536     -857.15169      1902.8018      2861.1207     -1964.2011      19.37168       90.105461     -1590.7442     -2175.6059     -111.71592      113278         48.385495      48.385495      48.385495      0.54999999    -128.53043     -77.809507      449.21986    
    163000   81500          464.83869     -485.34006      3522.1175      4323.9204      5014.4714     -690.55103      1973.4224      2872.9504     -1919.2735      19.843398      116.22268     -1586.8403     -2166.8761     -111.71592      113278         48.385495      48.385495      48.385495      0.54999999    -20.863317      320.75657     -1755.9134    
    164000   82000          468.04519     -323.75735      3838.8961      4373.7573      5049.0616     -675.30433      2005.5743      2881.2701     -1946.3985      19.968297      116.4614      -1584.2837     -2167.8963     -111.71592      113278         48.385495      48.385495      48.385495      0.54999999    -425.01544     -1318.3874      772.13082    
    165000   82500          470.3903      -1018.8566      2619.8016      4302.9969      5074.3596     -771.36264      1960.8329      2867.0228     -1934.7237      21.321849      50.969676     -1569.2083     -2167.5778     -111.71592      113278         48.385495      48.385495      48.385495      0.54999999    -1329.2296     -1014.399      -712.94108    
    166000   83000          473.18241     -564.77476      3413.4981      4346.5305      5104.4796     -757.94911      2023.5874      2856.9736     -1939.448       20.26449       25.450536     -1574.3555     -2170.4216     -111.71592      113278         48.385495      48.385495      48.385495      0.54999999     853.37424     -979.64199     -1568.0565    
    167000   83500          469.61715      228.55818      4749.6268      4372.0387      5066.0192     -693.98044      1959.1834      2968.9309     -1957.4494      20.3013        67.01574      -1581.2242     -2170.7382     -111.71592      113278         48.385495      48.385495      48.385495      0.54999999     465.04486      400.63477     -180.0051     
    168000   84000          469.55694     -132.73002      4024.5052      4243.7809      5065.3697     -821.58874      1969.1641      2869.1516     -1968.1971      21.025025      44.291902     -1583.2683     -2173.7561     -111.71592      113278         48.385495      48.385495      48.385495      0.54999999     410.20664     -486.64102     -321.75567    
    169000   84500          473.75957     -124.30739      4226.8714      4432.2327      5110.7058     -678.47314      2025.5463      2857.1445     -1956.2476      20.800155      132.22994     -1584.468      -2173.4784     -111.71592      113278         48.385495      48.385495      48.385495      0.54999999     225.00835     -1175.0611      577.1306     
    170000   85000          478.10737      96.455941      4584.2881      4424.9387      5157.6079     -732.66926      1986.5046      2877.4774     -1980.1001      20.058659      117.34476     -1581.6545     -2172.3001     -111.71592      113278         48.385495      48.385495      48.385495      0.54999999     93.91613       1016.0058     -820.55411    
    171000   85500          481.81092      137.07898      4886.2841      4659.8237      5197.5601     -537.73646      2042.8066      2919.0167     -1923.0424      19.793627      144.0152      -1574.2112     -2166.115      -111.71592      113278         48.385495      48.385495      48.385495      0.54999999    -77.180577     -209.52451      697.94202    
    172000   86000          480.79065     -650.83647      3522.6171      4597.8272      5186.5539     -588.72672      2076.3665      2902.4697     -1943.3627      20.468341      90.068961     -1571.147      -2163.5905     -111.71592      113278         48.385495      48.385495      48.385495      0.54999999    -178.50825     -944.99785     -829.00331    
[...]
    255000   127500         554.95116     -173.15745      6169.9466      6456.0102      5986.5643      469.4459       2328.2457      3326.0229     -1867.7049      20.103338      366.41546     -1557.6424     -2145.9942     -111.71592      113278         48.385495      48.385495      48.385495      0.54999999    -296.96379      134.19106     -356.69961    
    256000   128000         561.83983      141.11673      6651.8694      6418.7385      6060.8762      357.86227      2238.0385      3365.3949     -1891.7217      21.265875      340.76202     -1557.8079     -2158.0694     -111.71592      113278         48.385495      48.385495      48.385495      0.54999999    -168.27606      490.54318      101.08308    
    257000   128500         582.16221     -476.3787       5954.7934      6741.7917      6280.1048      461.68684      2365.7044      3346.3029     -1877.9144      21.920897      333.05859     -1568.0769     -2159.3086     -111.71592      113278         48.385495      48.385495      48.385495      0.54999999    -821.02832     -428.48802     -179.61974    
    258000   129000         574.90377      420.31947      7324.6256      6630.2396      6201.8041      428.43549      2374.2547      3321.3153     -1901.3205      23.110617      336.18155     -1562.9239     -2162.1824     -111.71592      113278         48.385495      48.385495      48.385495      0.54999999     336.72694      857.28132      66.950154    
    259000   129500         569.34087     -961.81817      5040.8954      6629.8607      6141.7939      488.06679      2402.901       3390.5552     -1882.4695      21.157944      277.07752     -1561.7435     -2159.4118     -111.71592      113278         48.385495      48.385495      48.385495      0.54999999    -469.84196     -1968.0935     -447.51901    
    260000   130000         558.10822     -525.65323      5575.3333      6443.7353      6020.6212      423.11402      2426.8671      3275.3185     -1870.8258      21.312838      302.37848     -1571.1331     -2160.804      -111.71592      113278         48.385495      48.385495      48.385495      0.54999999    -247.34109     -509.91143     -819.70718    
    261000   130500         568.79987     -599.82894      5699.7372      6690.6807      6135.9579      554.72275      2357.0783      3443.363      -1876.9042      22.563074      332.20219     -1565.7138     -2157.8659     -111.71592      113278         48.385495      48.385495      48.385495      0.54999999    -3.4996128     -870.91805     -925.06917    
    262000   131000         574.70974      381.64736      7472.5176      6842.0196      6199.7109      642.30867      2340.7552      3546.1688     -1880.9425      21.986409      339.94079     -1564.6761     -2160.9239     -111.71592      113278         48.385495      48.385495      48.385495      0.54999999    -580.4097      -11.835321      1737.1871    
    263000   131500         568.96959     -291.11027      6271.2574      6752.1842      6137.7888      614.39538      2462.3259      3465.5277     -1916.4331      23.178292      300.92985     -1559.0554     -2162.078      -111.71592      113278         48.385495      48.385495      48.385495      0.54999999    -321.80715      212.16844     -763.6921     
    264000   132000         576.38745     -676.62721      5601.9349      6719.7524      6217.8093      501.94309      2446.3393      3279.0067     -1854.4662      21.428827      334.93906     -1565.4791     -2159.8255     -111.71592      113278         48.385495      48.385495      48.385495      0.54999999    -462.28123     -1131.1006     -436.49981    
    265000   132500         566.63847      41.838401      6612.8937      6543.7748      6112.6417      431.13314      2382.0486      3291.8956     -1864.4162      22.695014      315.2439      -1560.2607     -2156.0732     -111.71592      113278         48.385495      48.385495      48.385495      0.54999999    -67.193687      165.52055      27.188336    
    266000   133000         572.49903     -5.9631179      6650.6377      6660.489       6175.8628      484.6262       2431.729       3360.1158     -1866.8691      20.364951      274.76309     -1570.5457     -2164.9319     -111.71592      113278         48.385495      48.385495      48.385495      0.54999999    -97.729895      391.43948     -311.59894    
    267000   133500         573.76289     -299.65726      6321.144       6816.1908      6189.4968      626.694        2517.8049      3409.1337     -1865.7564      21.56859       265.0262      -1561.4185     -2159.6644     -111.71592      113278         48.385495      48.385495      48.385495      0.54999999    -632.77411     -590.94138      324.7437     
    268000   134000         570.98879      297.98007      7298.1528      6805.8768      6159.571       646.30577      2376.5628      3435.6266     -1837.7338      21.343487      367.02648     -1562.1826     -2154.3372     -111.71592      113278         48.385495      48.385495      48.385495      0.54999999     577.02709     -619.83358      936.74672    
    269000   134500         580.44589     -614.41859      5977.9837      6993.0299      6261.59        731.43988      2530.9137      3425.5099     -1863.8773      21.662085      326.11893     -1554.9601     -2153.9274     -111.71592      113278         48.385495      48.385495      48.385495      0.54999999    -742.62108     -539.43474     -561.19995    
    270000   135000         587.22813     -441.03815      6375.9936      7104.6077      6334.7538      769.85395      2496.3545      3460.0223     -1849.8243      21.229229      363.64017     -1564.1804     -2157.3875     -111.71592      113278         48.385495      48.385495      48.385495      0.54999999    -1000.8501      347.30352     -669.56788    
    271000   135500         572.49794      49.706659      6890.4811      6808.3635      6175.851       632.51248      2333.0092      3473.5474     -1847.6031      21.429327      362.09758     -1554.6674     -2155.3006     -111.71592      113278         48.385495      48.385495      48.385495      0.54999999     386.15877      95.025873     -332.06467    
    272000   136000         586.12734     -242.85823      6631.6157      7032.8281      6322.8789      709.94923      2528.2336      3360.5537     -1840.92        19.456219      357.77289     -1559.761      -2155.3861     -111.71592      113278         48.385495      48.385495      48.385495      0.54999999     324.60166     -658.46061     -394.71576    
    273000   136500         578.6979       439.9325       7529.3573      6802.5697      6242.7334      559.83628      2371.877       3370.3399     -1857.8118      22.321749      363.70719     -1555.1948     -2155.4029     -111.71592      113278         48.385495      48.385495      48.385495      0.54999999     1004.5154      288.3426       26.939545    
    274000   137000         583.78035     -343.23753      6504.4363      7071.4796      6297.5606      773.91902      2490.3378      3481.2531     -1857.0718      23.371846      347.38008     -1557.4239     -2153.9281     -111.71592      113278         48.385495      48.385495      48.385495      0.54999999     236.80724     -832.74103     -433.7788     
    275000   137500         590.9825      -334.50642      6628.0354      7180.6545      6375.2542      805.4003       2403.6358      3468.4902     -1798.8428      22.031999      435.06291     -1565.7325     -2159.2453     -111.71592      113278         48.385495      48.385495      48.385495      0.54999999     511.38929     -50.884169     -1464.0244    
    276000   138000         576.8382       140.29823      7203.8533      6972.0745      6222.6718      749.40265      2429.5471      3500.6777     -1855.3685      23.94593       349.89253     -1553.0617     -2146.2305     -111.71592      113278         48.385495      48.385495      48.385495      0.54999999    -1226.4262      1122.7877      524.53325    
    277000   138500         588.81601      361.96422      7671.9037      7073.9231      6351.883       722.04008      2358.0503      3446.7349     -1830.5202      21.677277      410.15846     -1542.1139     -2141.9467     -111.71592      113278         48.385495      48.385495      48.385495      0.54999999    -121.63189      901.66259      305.86195    
    278000   139000         570.38692     -674.17657      5904.6046      7018.3736      6153.0783      865.29526      2541.4372      3471.5459     -1832.2233      21.811891      350.92824     -1542.1551     -2146.0495     -111.71592      113278         48.385495      48.385495      48.385495      0.54999999    -891.61603     -253.86648     -877.0472     
    279000   139500         589.55526     -95.277445      7005.2758      7162.6783      6359.8577      802.82052      2497.8098      3485.6611     -1853.6516      23.926725      336.99637     -1540.9081     -2147.0139     -111.71592      113278         48.385495      48.385495      48.385495      0.54999999    -484.28587     -107.14858      305.60212    
    280000   140000         589.03631     -86.040124      7092.298       7234.4401      6354.2596      880.18047      2433.9019      3552.2295     -1814.0241      24.322021      378.93303     -1548.1941     -2146.9878     -111.71592      113278         48.385495      48.385495      48.385495      0.54999999     570.21855      200.58664     -1028.9256    
    281000   140500         607.425       -288.31971      6889.5391      7365.8558      6552.6285      813.2273       2478.4481      3440.0028     -1842.9595      22.838156      410.26759     -1544.5009     -2150.869      -111.71592      113278         48.385495      48.385495      48.385495      0.54999999    -147.03464     -557.99565     -159.92883    
    282000   141000         593.47333     -866.72083      5810.6695      7242.5299      6402.1242      840.40569      2479.8755      3510.488      -1829.8265      24.381307      350.92238     -1547.7202     -2147.7148     -111.71592      113278         48.385495      48.385495      48.385495      0.54999999    -811.39935     -1688.847      -99.91609     
    283000   141500         599.58232      924.28504      8663.892       7136.933       6468.0252      668.90778      2380.8068      3481.1888     -1862.6391      24.142735      363.80786     -1560.4256     -2157.9737     -111.71592      113278         48.385495      48.385495      48.385495      0.54999999     877.95097      1363.7702      531.13395    
    284000   142000         605.2325       737.19254      8578.2785      7360.4044      6528.9768      831.42768      2385.7626      3528.2447     -1861.4252      21.270211      465.31355     -1556.0375     -2151.7007     -111.71592      113278         48.385495      48.385495      48.385495      0.54999999     929.29107      1492.056      -209.7694     
    285000   142500         594.70202     -184.85803      6925.1764      7230.5699      6415.3787      815.1912       2474.4702      3511.3187     -1900.7832      23.185202      425.29207     -1558.6936     -2159.5983     -111.71592      113278         48.385495      48.385495      48.385495      0.54999999    -760.53542      88.95209       117.00925    
    286000   143000         591.21563     -192.43826      6950.3825      7268.2988      6377.7691      890.52975      2445.2295      3608.2629     -1877.4349      21.791686      411.47272     -1557.6757     -2161.1165     -111.71592      113278         48.385495      48.385495      48.385495      0.54999999     27.792107     -324.48194     -280.62494    
    287000   143500         590.18867     -491.22782      6405.4565      7216.9862      6366.6907      850.29549      2480.3771      3548.7709     -1848.658       22.345006      360.22817     -1554.4636     -2158.3042     -111.71592      113278         48.385495      48.385495      48.385495      0.54999999    -388.41299      127.87979     -1213.1503    
    288000   144000         596.73572      318.81605      8013.2696      7486.5716      6437.3174      1049.2542      2572.0501      3559.9172     -1840.3872      21.591813      450.56545     -1559.8681     -2154.615      -111.71592      113278         48.385495      48.385495      48.385495      0.54999999    -532.91312      1470.6922      18.669107    
    289000   144500         592.88773     -349.20264      6604.6878      7181.5858      6395.8069      785.77882      2442.7197      3517.0383     -1850.3653      22.861269      361.84365     -1548.8514     -2159.4674     -111.71592      113278         48.385495      48.385495      48.385495      0.54999999    -1471.2374      398.47137      25.158147    
    290000   145000         604.06536     -741.93685      6112.9098      7338.6217      6516.3862      822.23549      2394.2724      3579.5101     -1816.6578      24.568868      359.32162     -1554.1054     -2164.6742     -111.71592      113278         48.385495      48.385495      48.385495      0.54999999    -338.51985     -1363.4975     -523.79318    
    291000   145500         602.80445     -391.85782      6849.0822      7496.4484      6502.7841      993.66425      2569.6207      3638.7437     -1878.8221      23.438192      355.13207     -1554.1532     -2160.2952     -111.71592      113278         48.385495      48.385495      48.385495      0.54999999    -479.00278     -840.11371      143.54302    
    292000   146000         592.58104     -522.22331      6353.7847      7216.5203      6392.4985      824.02175      2528.5322      3517.3284     -1885.3712      24.256578      334.60418     -1544.0577     -2151.2706     -111.71592      113278         48.385495      48.385495      48.385495      0.54999999    -75.981776     -893.98704     -596.70112    
    293000   146500         609.90317     -536.96312      6674.8634      7561.9498      6579.3619      982.58786      2547.5081      3623.9462     -1899.1163      23.614029      405.02404     -1560.4966     -2157.8916     -111.71592      113278         48.385495      48.385495      48.385495      0.54999999    -966.55597      1.9224654     -646.25585    
    294000   147000         600.26209     -128.79487      7151.9716      7364.7463      6475.3582      889.38812      2554.0516      3455.4357     -1838.5017      22.054056      416.26267     -1563.7237     -2156.1906     -111.71592      113278         48.385495      48.385495      48.385495      0.54999999    -634.0733      -175.79411      423.48281    
    295000   147500         606.81948      660.2804       8430.2771      7339.4652      6546.0964      793.36873      2465.2244      3465.7109     -1834.5367      24.335762      387.20197     -1561.7678     -2152.7997     -111.71592      113278         48.385495      48.385495      48.385495      0.54999999     901.84278      377.03263      701.9658     
    296000   148000         603.09973     -406.44165      6878.9829      7550.4421      6505.9694      1044.4727      2570.7907      3583.4894     -1836.1346      22.344993      425.45126     -1561.5845     -2159.8846     -111.71592      113278         48.385495      48.385495      48.385495      0.54999999     57.810893     -751.60596     -525.52988    
    297000   148500         600.46025     -417.6288       6541.3123      7231.2532      6477.4959      753.75728      2457.8967      3530.7752     -1897.4417      24.144234      347.30149     -1553.7853     -2155.1334     -111.71592      113278         48.385495      48.385495      48.385495      0.54999999    -77.198233     -520.00644     -655.68172    
    298000   149000         617.6357      -157.07296      7597.3658      7856.8572      6662.7769      1194.0803      2681.7958      3564.3688     -1848.6963      23.669745      471.92013     -1548.0377     -2150.9403     -111.71592      113278         48.385495      48.385495      48.385495      0.54999999    -738.07277     -2.3064109      269.16031    
    299000   149500         608.70639      144.7676       7923.3825      7684.2201      6566.4516      1117.7685      2563.7445      3572.1893     -1826.6835      23.122567      503.73481     -1559.8064     -2158.5328     -111.71592      113278         48.385495      48.385495      48.385495      0.54999999     403.7272       198.90512     -168.32953    
    300000   150000         600.19338     -106.15162      7357.9493      7533.3164      6474.617       1058.6994      2601.3742      3539.4446     -1854.9515      23.805077      444.58883     -1549.5291     -2146.0327     -111.71592      113278         48.385495      48.385495      48.385495      0.54999999     398.65394     -514.61974     -202.48906    
Loop time of 457.265 on 1 procs for 300000 steps with 3620 atoms

Performance: 28.342 ns/day, 0.847 hours/ns, 656.074 timesteps/s, 2.375 Matom-step/s
100.0% CPU use with 1 MPI tasks x 1 OpenMP threads

MPI task timing breakdown:
Section |  min time  |  avg time  |  max time  |%varavg| %total
---------------------------------------------------------------
Pair    | 5.3781     | 5.3781     | 5.3781     |   0.0 |  1.18
Bond    | 60.895     | 60.895     | 60.895     |   0.0 | 13.32
Kspace  | 313.27     | 313.27     | 313.27     |   0.0 | 68.51
Neigh   | 13.19      | 13.19      | 13.19      |   0.0 |  2.88
Comm    | 5.8439     | 5.8439     | 5.8439     |   0.0 |  1.28
Output  | 2.1431     | 2.1431     | 2.1431     |   0.0 |  0.47
Modify  | 45.779     | 45.779     | 45.779     |   0.0 | 10.01
Other   |            | 10.76      |            |       |  2.35

Nlocal:           3620 ave        3620 max        3620 min
Histogram: 1 0 0 0 0 0 0 0 0 0
Nghost:           9745 ave        9745 max        9745 min
Histogram: 1 0 0 0 0 0 0 0 0 0
Neighs:              0 ave           0 max           0 min
Histogram: 1 0 0 0 0 0 0 0 0 0
FullNghs:  1.00587e+06 ave 1.00587e+06 max 1.00587e+06 min
Histogram: 1 0 0 0 0 0 0 0 0 0

Total # of neighbors = 1005874
Ave neighs/atom = 277.86575
Ave special neighs/atom = 5.9723757
Neighbor list builds = 5296
Dangerous builds = 0

# --- Cleanup ---
unfix nvt_fix

undump dump_nvt

# --- Write Output ---
write_dump all custom nvt_softheat_last.dump id type mol x y z xu yu zu vx vy vz modify sort id
write_data /home/alexzhao/PolyJarvis/data/PVC2/lammps/equil/nvt_softheat/nvt_softheat_out.data
System init for write_data ...
PPPM Kokkos initialization ...
  using 12-bit tables for long-range coulomb
  G vector (1/distance) = 0.28916327
  grid = 30 30 30
  stencil order = 5
  estimated absolute RMS force accuracy = 0.00033761496
  estimated relative force accuracy = 1.0167174e-06
  using double precision cuFFT
  3d grid and FFT values/proc = 50653 27000
Generated 6 of 6 mixed pair_coeff terms from sixthpower/sixthpower mixing rule

print "STAGE COMPLETE: NVT T=300.0->610.0K steps=300000"
STAGE COMPLETE: NVT T=300.0->610.0K steps=300000
quit
10.76      |            |       |  2.35

Nlocal:           3620 ave        3620 max        3620 min
Histogram: 1 0 0 0 0 0 0 0 0 0
Nghost:           9745 ave        9745 max        9745 min
Histogram: 1 0 0 0 0 0 0 0 0 0
Neighs:              0 ave           0 max           0 min
Histogram: 1 0 0 0 0 0 0 0 0 0
FullNghs:  1.00587e+06 ave 1.00587e+06 max 1.00587e+06 min
Histogram: 1 0 0 0 0 0 0 0 0 0

Total # of neighbors = 1005874
Ave neighs/atom = 277.86575
Ave special neighs/atom = 5.9723757
Neighbor list builds = 5296
Dangerous builds = 0
System init for write_data ...
PPPM Kokkos initialization ...
  using 12-bit tables for long-range coulomb
  G vector (1/distance) = 0.28916327
  grid = 30 30 30
  stencil order = 5
  estimated absolute RMS force accuracy = 0.00033761496
  estimated relative force accuracy = 1.0167174e-06
  using double precision cuFFT
  3d grid and FFT values/proc = 50653 27000
Generated 6 of 6 mixed pair_coeff terms from sixthpower/sixthpower mixing rule
STAGE COMPLETE: NVT T=300.0->610.0K steps=300000
