units real
atom_style full
boundary p p p

# --- Force Field Styles ---
pair_style lj/class2/coul/long 9.5 9.5
kspace_style pppm 1e-6
dielectric 1.000000
bond_style class2
angle_style class2
dihedral_style class2
improper_style class2
special_bonds lj/coul 0 0 1
pair_modify mix sixthpower tail yes
neighbor 2.0 bin
neigh_modify delay 0 every 1 check yes
neigh_modify one 4000
# KOKKOS: package loaded via -pk kokkos on the command line

read_data /home/alexzhao/PolyJarvis/data/PVC3/lammps/equil/npt_production/npt_production_out.data
Reading data file ...
  orthogonal box = (5.6610741 5.6610741 5.6610741) to (42.724421 42.724421 42.724421)
  1 by 1 by 1 MPI processor grid
  reading atoms ...
  3620 atoms
  reading velocities ...
  3620 velocities
  scanning bonds ...
  4 = max bonds/atom
  scanning angles ...
  12 = max angles/atom
  scanning dihedrals ...
  24 = max dihedrals/atom
  scanning impropers ...
  10 = max impropers/atom
  orthogonal box = (5.6610741 5.6610741 5.6610741) to (42.724421 42.724421 42.724421)
  1 by 1 by 1 MPI processor grid
  reading bonds ...
  3610 bonds
  reading angles ...
  7200 angles
  reading dihedrals ...
  10710 dihedrals
  reading impropers ...
  4800 impropers
Finding 1-2 1-3 1-4 neighbors ...
  special bond factors lj:    0        0        1       
  special bond factors coul:  0        0        1       
     4 = max # of 1-2 neighbors
     6 = max # of 1-3 neighbors
    10 = max # of special neighbors
  special bonds CPU = 0.002 seconds
  read_data CPU = 0.170 seconds
include /home/alexzhao/PolyJarvis/data/PVC3/lammps/equil/emc_build.params
# LAMMPS parameters created by EMC v9.4.4, build Jul 31 2025 20:33:44

# Variables

variable	seed		index	472913
variable	ntotal		index	3620
variable	fshape		index	1
variable	output		index	emc_build
variable	field		index	pcff/pcff
variable	location1	index	~/emc/field/
variable	nav		index	0.6022141179
variable	temperature	index	300
variable	radius		index	5
variable	nrelax		index	100
variable	weight_nonbond	index	0.0001
variable	weight_bond	index	0.0001
variable	weight_focus	index	1
variable	cutoff		index	9.5
variable	charge_cutoff	index	9.5
variable	kappa		index	4
variable	density1	index	0.55
variable	lprevious	index	0
variable	lphase		index	48.3854950346
variable	f_poly		index	10
variable	chem_repeat	index	*CC(Cl)*
variable	chem_cap	index	*[H]
variable	lg_repeat	index	6
variable	lg_cap		index	1
variable	norm_poly	index	100
variable	l_poly		index	362
variable	mg_repeat	index	50.48806
variable	mg_cap		index	1.00797
variable	m_poly		index	3031.29954
variable	n_poly		index	10
variable	mtotal		index	37519.6854
variable	nphase1		index	3620
variable	mphase1		index	37519.6854
variable	vphase1		index	113277.998291
variable	lbox		index	48.3854950346
variable	lphase1		index	48.3854950346
variable	lxx		index	48.3854950346
variable	lyy		index	48.3854950346
variable	lzz		index	48.3854950346
variable	lzy		index	0
variable	lzx		index	0
variable	lyx		index	0
variable	vtotal		index	113277.998291
variable	nl_poly		index	10

# Types

variable	type_c		index	1
variable	type_c1		index	2
variable	type_cl		index	3
variable	type_hc		index	4

variable	type_bond_c_c	index	1
variable	type_bond_c_c1	index	2
variable	type_bond_c_cl	index	3
variable	type_bond_c_hc	index	4
variable	type_bond_c1_cl	index	5
variable	type_bond_c1_hc	index	6

variable	type_angle_c_c_c1 index	1
variable	type_angle_c_c_cl index	2
variable	type_angle_c_c_hc index	3
variable	type_angle_c_c1_c index	4
variable	type_angle_c_c1_cl index	5
variable	type_angle_c_c1_hc index	6
variable	type_angle_c1_c_c1 index	7
variable	type_angle_c1_c_hc index	8
variable	type_angle_cl_c_hc index	9
variable	type_angle_cl_c1_hc index	10
variable	type_angle_hc_c_hc index	11

# Clusters

variable	n0_poly		index	1
variable	n1_poly		index	10
variable	nl_poly		index	10

# Flags

variable	flag_charged	index	1

# Masses

mass		1    12.01115  # c
mass		2    12.01115  # c1
mass		3    35.45300  # cl
mass		4     1.00797  # hc

# Potentials

pair_modify	mix sixthpower tail yes
special_bonds	lj/coul 0 0 1

# Pair Coeffs

pair_coeff	 1  1    0.05400    4.01000  # c,c
pair_coeff	 2  2    0.05400    4.01000  # c1,c1
pair_coeff	 3  3    0.22470    3.92000  # cl,cl
pair_coeff	 4  4    0.02000    2.99500  # hc,hc

# Bond Coeffs

bond_coeff	1    1.53000  299.67000 -501.77000  679.81000  # c,c
bond_coeff	2    1.53000  299.67000 -501.77000  679.81000  # c,c1
bond_coeff	3    1.79000  194.31900    0.00000    0.00000  # c,cl
bond_coeff	4    1.10100  345.00000 -691.89000  844.60000  # c,hc
bond_coeff	5    1.79000  194.31900    0.00000    0.00000  # c1,cl
bond_coeff	6    1.10100  345.00000 -691.89000  844.60000  # c1,hc

# Angle Coeffs

angle_coeff	 1  112.67000   39.51600   -7.44300   -9.55830  # c,c,c1
angle_coeff	 2  107.00000   61.17450    0.00000    0.00000  # c,c,cl
angle_coeff	 3  110.77000   41.45300  -10.60400    5.12900  # c,c,hc
angle_coeff	 4  112.67000   39.51600   -7.44300   -9.55830  # c,c1,c
angle_coeff	 5  107.00000   61.17450    0.00000    0.00000  # c,c1,cl
angle_coeff	 6  110.77000   41.45300  -10.60400    5.12900  # c,c1,hc
angle_coeff	 7  112.67000   39.51600   -7.44300   -9.55830  # c1,c,c1
angle_coeff	 8  110.77000   41.45300  -10.60400    5.12900  # c1,c,hc
angle_coeff	 9  107.99680   51.09870    0.00000    0.00000  # cl,c,hc
angle_coeff	10  107.99680   51.09870    0.00000    0.00000  # cl,c1,hc
angle_coeff	11  107.66000   39.64100  -12.92100   -2.43180  # hc,c,hc

# BondBond Coeffs

angle_coeff	 1 bb    0.00000    1.53000    1.53000  # c,c,c1
angle_coeff	 2 bb    0.00000    1.53000    1.79000  # c,c,cl
angle_coeff	 3 bb    3.38720    1.53000    1.10100  # c,c,hc
angle_coeff	 4 bb    0.00000    1.53000    1.53000  # c,c1,c
angle_coeff	 5 bb    0.00000    1.53000    1.79000  # c,c1,cl
angle_coeff	 6 bb    3.38720    1.53000    1.10100  # c,c1,hc
angle_coeff	 7 bb    0.00000    1.53000    1.53000  # c1,c,c1
angle_coeff	 8 bb    3.38720    1.53000    1.10100  # c1,c,hc
angle_coeff	 9 bb    0.00000    1.79000    1.10100  # cl,c,hc
angle_coeff	10 bb    0.00000    1.79000    1.10100  # cl,c1,hc
angle_coeff	11 bb    5.33160    1.10100    1.10100  # hc,c,hc

# BondAngle Coeffs

angle_coeff	 1 ba    8.01600    8.01600    1.53000    1.53000  # c,c,c1
angle_coeff	 2 ba    0.00000    0.00000    1.53000    1.79000  # c,c,cl
angle_coeff	 3 ba   20.75400   11.42100    1.53000    1.10100  # c,c,hc
angle_coeff	 4 ba    8.01600    8.01600    1.53000    1.53000  # c,c1,c
angle_coeff	 5 ba    0.00000    0.00000    1.53000    1.79000  # c,c1,cl
angle_coeff	 6 ba   20.75400   11.42100    1.53000    1.10100  # c,c1,hc
angle_coeff	 7 ba    8.01600    8.01600    1.53000    1.53000  # c1,c,c1
angle_coeff	 8 ba   20.75400   11.42100    1.53000    1.10100  # c1,c,hc
angle_coeff	 9 ba    0.00000    0.00000    1.79000    1.10100  # cl,c,hc
angle_coeff	10 ba    0.00000    0.00000    1.79000    1.10100  # cl,c1,hc
angle_coeff	11 ba   18.10300   18.10300    1.10100    1.10100  # hc,c,hc

# Dihedral Coeffs

dihedral_coeff	 1    0.00000    0.00000    0.05140    0.00000   -0.14300    0.00000  # c,c,c1,c
dihedral_coeff	 2    0.00000    0.00000    0.00000    0.00000    0.15000    0.00000  # c,c,c1,cl
dihedral_coeff	 3    0.00000    0.00000    0.03160    0.00000   -0.16810    0.00000  # c,c,c1,hc
dihedral_coeff	 4    0.00000    0.00000    0.05140    0.00000   -0.14300    0.00000  # c,c1,c,c1
dihedral_coeff	 5    0.00000    0.00000    0.03160    0.00000   -0.16810    0.00000  # c,c1,c,hc
dihedral_coeff	 6    0.00000    0.00000    0.00000    0.00000    0.15000    0.00000  # c1,c,c,cl
dihedral_coeff	 7    0.00000    0.00000    0.03160    0.00000   -0.16810    0.00000  # c1,c,c,hc
dihedral_coeff	 8    0.00000    0.00000    0.00000    0.00000    0.15000    0.00000  # c1,c,c1,cl
dihedral_coeff	 9    0.00000    0.00000    0.03160    0.00000   -0.16810    0.00000  # c1,c,c1,hc
dihedral_coeff	10    0.00000    0.00000    0.00000    0.00000   -0.10000    0.00000  # cl,c,c,hc
dihedral_coeff	11    0.00000    0.00000    0.00000    0.00000   -0.10000    0.00000  # cl,c1,c,hc
dihedral_coeff	12   -0.14320    0.00000    0.06170    0.00000   -0.10830    0.00000  # hc,c,c,hc
dihedral_coeff	13   -0.14320    0.00000    0.06170    0.00000   -0.10830    0.00000  # hc,c,c1,hc

# MiddleBondTorsion Coeffs

dihedral_coeff	 1 mbt  -17.78700   -7.18770    0.00000    1.53000  # c,c,c1,c
dihedral_coeff	 2 mbt    0.00000    0.00000    0.00000    1.53000  # c,c,c1,cl
dihedral_coeff	 3 mbt  -14.87900   -3.65810   -0.31380    1.53000  # c,c,c1,hc
dihedral_coeff	 4 mbt  -17.78700   -7.18770    0.00000    1.53000  # c,c1,c,c1
dihedral_coeff	 5 mbt  -14.87900   -3.65810   -0.31380    1.53000  # c,c1,c,hc
dihedral_coeff	 6 mbt    0.00000    0.00000    0.00000    1.53000  # c1,c,c,cl
dihedral_coeff	 7 mbt  -14.87900   -3.65810   -0.31380    1.53000  # c1,c,c,hc
dihedral_coeff	 8 mbt    0.00000    0.00000    0.00000    1.53000  # c1,c,c1,cl
dihedral_coeff	 9 mbt  -14.87900   -3.65810   -0.31380    1.53000  # c1,c,c1,hc
dihedral_coeff	10 mbt    0.00000    0.00000    0.00000    1.53000  # cl,c,c,hc
dihedral_coeff	11 mbt    0.00000    0.00000    0.00000    1.53000  # cl,c1,c,hc
dihedral_coeff	12 mbt  -14.26100   -0.53220   -0.48640    1.53000  # hc,c,c,hc
dihedral_coeff	13 mbt  -14.26100   -0.53220   -0.48640    1.53000  # hc,c,c1,hc

# EndBondTorsion Coeffs

dihedral_coeff	 1 ebt   -0.07320    0.00000    0.00000   -0.07320    0.00000    0.00000    1.53000    1.53000  # c,c,c1,c
dihedral_coeff	 2 ebt    0.00000    0.00000    0.00000    0.00000    0.00000    0.00000    1.53000    1.79000  # c,c,c1,cl
dihedral_coeff	 3 ebt    0.24860    0.24220   -0.09250    0.08140    0.05910    0.22190    1.53000    1.10100  # c,c,c1,hc
dihedral_coeff	 4 ebt   -0.07320    0.00000    0.00000   -0.07320    0.00000    0.00000    1.53000    1.53000  # c,c1,c,c1
dihedral_coeff	 5 ebt    0.24860    0.24220   -0.09250    0.08140    0.05910    0.22190    1.53000    1.10100  # c,c1,c,hc
dihedral_coeff	 6 ebt    0.00000    0.00000    0.00000    0.00000    0.00000    0.00000    1.53000    1.79000  # c1,c,c,cl
dihedral_coeff	 7 ebt    0.24860    0.24220   -0.09250    0.08140    0.05910    0.22190    1.53000    1.10100  # c1,c,c,hc
dihedral_coeff	 8 ebt    0.00000    0.00000    0.00000    0.00000    0.00000    0.00000    1.53000    1.79000  # c1,c,c1,cl
dihedral_coeff	 9 ebt    0.24860    0.24220   -0.09250    0.08140    0.05910    0.22190    1.53000    1.10100  # c1,c,c1,hc
dihedral_coeff	10 ebt    0.00000    0.00000    0.00000    0.00000    0.00000    0.00000    1.79000    1.10100  # cl,c,c,hc
dihedral_coeff	11 ebt    0.00000    0.00000    0.00000    0.00000    0.00000    0.00000    1.79000    1.10100  # cl,c1,c,hc
dihedral_coeff	12 ebt    0.21300    0.31200    0.07770    0.21300    0.31200    0.07770    1.10100    1.10100  # hc,c,c,hc
dihedral_coeff	13 ebt    0.21300    0.31200    0.07770    0.21300    0.31200    0.07770    1.10100    1.10100  # hc,c,c1,hc

# AngleTorsion Coeffs

dihedral_coeff	 1 at    0.38860   -0.31390    0.13890    0.38860   -0.31390    0.13890  112.67000  112.67000  # c,c,c1,c
dihedral_coeff	 2 at    0.00000    0.00000    0.00000    0.00000    0.00000    0.00000  112.67000  107.00000  # c,c,c1,cl
dihedral_coeff	 3 at   -0.24540    0.00000   -0.11360    0.31130    0.45160   -0.19880  112.67000  110.77000  # c,c,c1,hc
dihedral_coeff	 4 at    0.38860   -0.31390    0.13890    0.38860   -0.31390    0.13890  112.67000  112.67000  # c,c1,c,c1
dihedral_coeff	 5 at   -0.24540    0.00000   -0.11360    0.31130    0.45160   -0.19880  112.67000  110.77000  # c,c1,c,hc
dihedral_coeff	 6 at    0.00000    0.00000    0.00000    0.00000    0.00000    0.00000  112.67000  107.00000  # c1,c,c,cl
dihedral_coeff	 7 at   -0.24540    0.00000   -0.11360    0.31130    0.45160   -0.19880  112.67000  110.77000  # c1,c,c,hc
dihedral_coeff	 8 at    0.00000    0.00000    0.00000    0.00000    0.00000    0.00000  112.67000  107.00000  # c1,c,c1,cl
dihedral_coeff	 9 at   -0.24540    0.00000   -0.11360    0.31130    0.45160   -0.19880  112.67000  110.77000  # c1,c,c1,hc
dihedral_coeff	10 at    0.00000    0.00000    0.00000    0.00000    0.00000    0.00000  107.00000  110.77000  # cl,c,c,hc
dihedral_coeff	11 at    0.00000    0.00000    0.00000    0.00000    0.00000    0.00000  107.00000  110.77000  # cl,c1,c,hc
dihedral_coeff	12 at   -0.80850    0.55690   -0.24660   -0.80850    0.55690   -0.24660  110.77000  110.77000  # hc,c,c,hc
dihedral_coeff	13 at   -0.80850    0.55690   -0.24660   -0.80850    0.55690   -0.24660  110.77000  110.77000  # hc,c,c1,hc

# AngleAngleTorsion Coeffs

dihedral_coeff	 1 aat  -22.04500  112.67000  112.67000  # c,c,c1,c
dihedral_coeff	 2 aat    0.00000  112.67000  107.00000  # c,c,c1,cl
dihedral_coeff	 3 aat  -16.16400  112.67000  110.77000  # c,c,c1,hc
dihedral_coeff	 4 aat  -22.04500  112.67000  112.67000  # c,c1,c,c1
dihedral_coeff	 5 aat  -16.16400  112.67000  110.77000  # c,c1,c,hc
dihedral_coeff	 6 aat    0.00000  112.67000  107.00000  # c1,c,c,cl
dihedral_coeff	 7 aat  -16.16400  112.67000  110.77000  # c1,c,c,hc
dihedral_coeff	 8 aat    0.00000  112.67000  107.00000  # c1,c,c1,cl
dihedral_coeff	 9 aat  -16.16400  112.67000  110.77000  # c1,c,c1,hc
dihedral_coeff	10 aat    0.00000  107.00000  110.77000  # cl,c,c,hc
dihedral_coeff	11 aat    0.00000  107.00000  110.77000  # cl,c1,c,hc
dihedral_coeff	12 aat  -12.56400  110.77000  110.77000  # hc,c,c,hc
dihedral_coeff	13 aat  -12.56400  110.77000  110.77000  # hc,c,c1,hc

# BondBond13 Coeffs

dihedral_coeff	 1 bb13    0.00000    1.53000    1.53000  # c,c,c1,c
dihedral_coeff	 2 bb13    0.00000    1.53000    1.79000  # c,c,c1,cl
dihedral_coeff	 3 bb13    0.00000    1.53000    1.10100  # c,c,c1,hc
dihedral_coeff	 4 bb13    0.00000    1.53000    1.53000  # c,c1,c,c1
dihedral_coeff	 5 bb13    0.00000    1.53000    1.10100  # c,c1,c,hc
dihedral_coeff	 6 bb13    0.00000    1.53000    1.79000  # c1,c,c,cl
dihedral_coeff	 7 bb13    0.00000    1.53000    1.10100  # c1,c,c,hc
dihedral_coeff	 8 bb13    0.00000    1.53000    1.79000  # c1,c,c1,cl
dihedral_coeff	 9 bb13    0.00000    1.53000    1.10100  # c1,c,c1,hc
dihedral_coeff	10 bb13    0.00000    1.79000    1.10100  # cl,c,c,hc
dihedral_coeff	11 bb13    0.00000    1.79000    1.10100  # cl,c1,c,hc
dihedral_coeff	12 bb13    0.00000    1.10100    1.10100  # hc,c,c,hc
dihedral_coeff	13 bb13    0.00000    1.10100    1.10100  # hc,c,c1,hc

# Improper Coeffs

improper_coeff	 1    0.00000    0.00000  # c,c,cl,hc
improper_coeff	 2    0.00000    0.00000  # c,c,hc,c1
improper_coeff	 3    0.00000    0.00000  # c,c,hc,cl
improper_coeff	 4    0.00000    0.00000  # c,c,hc,hc
improper_coeff	 5    0.00000    0.00000  # c,c1,c1,hc
improper_coeff	 6    0.00000    0.00000  # c,c1,hc,hc
improper_coeff	 7    0.00000    0.00000  # c,cl,hc,hc
improper_coeff	 8    0.00000    0.00000  # c,hc,hc,hc
improper_coeff	 9    0.00000    0.00000  # c1,c,c,cl
improper_coeff	10    0.00000    0.00000  # c1,c,c,hc
improper_coeff	11    0.00000    0.00000  # c1,c,cl,hc

# AngleAngle Coeffs

improper_coeff	 1 aa    0.00000    0.00000    0.00000  107.00000  110.77000  107.99680  # c,c,cl,hc
improper_coeff	 2 aa    0.11840   -1.31990   -1.31990  110.77000  112.67000  110.77000  # c,c,hc,c1
improper_coeff	 3 aa    0.00000    0.00000    0.00000  110.77000  107.00000  107.99680  # c,c,hc,cl
improper_coeff	 4 aa    0.27380   -0.48250    0.27380  110.77000  110.77000  107.66000  # c,c,hc,hc
improper_coeff	 5 aa   -1.31990   -1.31990    0.11840  112.67000  110.77000  110.77000  # c,c1,c1,hc
improper_coeff	 6 aa    0.27380   -0.48250    0.27380  110.77000  110.77000  107.66000  # c,c1,hc,hc
improper_coeff	 7 aa    0.00000    0.00000    0.00000  107.99680  107.99680  107.66000  # c,cl,hc,hc
improper_coeff	 8 aa   -0.31570   -0.31570   -0.31570  107.66000  107.66000  107.66000  # c,hc,hc,hc
improper_coeff	 9 aa    0.00000    0.00000    0.00000  112.67000  107.00000  107.00000  # c1,c,c,cl
improper_coeff	10 aa   -1.31990   -1.31990    0.11840  112.67000  110.77000  110.77000  # c1,c,c,hc
improper_coeff	11 aa    0.00000    0.00000    0.00000  107.00000  110.77000  107.99680  # c1,c,cl,hc


# --- Thermo Output ---
thermo_style custom step time temp press enthalpy etotal ke pe ebond eangle edihed eimp evdwl ecoul elong etail vol lx ly lz density pxx pyy pzz
thermo_modify flush yes
thermo 1000

# --- Trajectory ---
dump dump_npt all custom 1000 npt_cool300.dump id type mol x y z ix iy iz vx vy vz

# --- Restart Checkpointing ---
# No restart checkpointing

# --- Initial Velocities (optional) ---
# Velocities read from data file

# --- SHAKE Constraints ---
# SHAKE disabled

# --- NPT Thermostat + Barostat (Nose-Hoover) ---
# T_damp = 100.0 fs  (heat bath coupling)
# P_damp = 1000.0 fs  (pressure bath coupling, ~10x T_damp typical)
# Ramp: T=530.0->300.0K  P=1.0->1.0atm
timestep 1.0
fix npt_fix all npt temp 530.0 300.0 100.0 iso 1.0 1.0 1000.0

run 1000000
PPPM Kokkos initialization ...
  using 12-bit tables for long-range coulomb
  G vector (1/distance) = 0.29585474
  grid = 25 25 25
  stencil order = 5
  estimated absolute RMS force accuracy = 0.00034700123
  estimated relative force accuracy = 1.0449839e-06
  using double precision cuFFT
  3d grid and FFT values/proc = 32768 15625
Generated 6 of 6 mixed pair_coeff terms from sixthpower/sixthpower mixing rule
Neighbor list info ...
  update: every = 1 steps, delay = 0 steps, check = yes
  max neighbors/atom: 4000, page size: 100000
  master list distance cutoff = 11.5
  ghost atom cutoff = 11.5
  binsize = 11.5, bins = 4 4 4
  1 neighbor lists, perpetual/occasional/extra = 1 0 0
  (1) pair lj/class2/coul/long/kk, perpetual
      attributes: full, newton off, kokkos_device
      pair build: full/bin/kk/device
      stencil: full/bin/3d
      bin: kk/device
Per MPI rank memory allocation (min/avg/max) = 24.28 | 24.28 | 24.28 Mbytes
   Step          Time           Temp          Press         Enthalpy        TotEng         KinEng         PotEng         E_bond        E_angle        E_dihed        E_impro         E_vdwl         E_coul         E_long         E_tail         Volume           Lx             Ly             Lz          Density          Pxx            Pyy            Pzz      
         0   0              528.8192       876.45912      5819.3627      5168.5718      5704.6644     -536.09256      2179.4201      3333.8182     -1893.848       21.272345     -408.85637     -1547.1468     -2220.752      -248.55742      50913.611      37.063347      37.063347      37.063347      1.2236983     -146.67025      1665.8226      1110.225     
      1000   1000           528.3658       2550.1319      7093.7845      5191.1651      5699.7734     -508.60823      2297.7637      3244.9828     -1888.0802      20.796907     -409.64015     -1549.3807     -2225.0506     -247.37013      51157.978      37.122549      37.122549      37.122549      1.217853       2423.0032      2349.2744      2878.1181    
      2000   2000           535.33632      28.000806      5173.113       5152.2502      5774.9682     -622.71795      2206.1696      3227.0837     -1884.7271      23.148722     -415.5262      -1551.4686     -2227.3981     -247.70505      51088.809      37.105811      37.105811      37.105811      1.2195019     -1418.3934      965.07395      537.32191    
      3000   3000           517.58756     -141.58341      4856.3083      4961.8284      5583.5025     -621.67412      2234.9171      3212.1835     -1877.337       20.849887     -441.01728     -1543.7649     -2227.5054     -247.63589      51103.077      37.109265      37.109265      37.109265      1.2191614     -1134.9002      1987.3257     -1277.1757    
      4000   4000           536.66214      915.74433      5969.5736      5270.9987      5789.2705     -518.2718       2194.1113      3272.4696     -1888.4999      20.649138     -346.96735     -1541.6899     -2228.3447     -241.93449      52307.366      37.398509      37.398509      37.398509      1.1910922     -47.311114      525.19272      2269.3514    
      5000   5000           533.35305     -115.8089       5040.5663      5128.8008      5753.5735     -624.77273      2194.115       3183.5453     -1905.0545      21.140572     -343.75602     -1548.4375     -2226.3257     -242.23682      52242.081      37.382943      37.382943      37.382943      1.1925807     -604.84895      78.038706      179.38353    
      6000   6000           524.40812      223.85984      5358.0844      5187.022       5657.0796     -470.05764      2216.7232      3362.3474     -1933.8222      23.108138     -375.77718     -1540.3995     -2222.2374     -241.52277      52396.534      37.419747      37.419747      37.419747      1.1890653     -666.01014      1107.4846      230.1051     
      7000   7000           524.25969      1763.2264      6370.2753      5025.6694      5655.4785     -629.80907      2217.9505      3155.0534     -1907.6098      21.848099     -357.67344     -1542.3778     -2217          -242.01908      52289.082      37.394151      37.394151      37.394151      1.1915087      2396.2465      1965.7681      927.66465    
      8000   8000           531.95461      61.844461      5195.9938      5148.706       5738.4878     -589.78176      2227.7273      3186.0379     -1870.9183      21.556859     -386.19527     -1549.0025     -2218.9878     -241.37289      52429.068      37.427491      37.427491      37.427491      1.1883274      197.36105      190.87305     -202.70072    
      9000   9000           519.55616     -257.87817      4870.355       5066.4884      5604.7389     -538.25056      2238.3395      3171.0849     -1882.2526      19.990194     -310.52351     -1555.5307     -2219.3584     -242.66078      52150.808      37.36116       37.36116       37.36116       1.1946679     -1179.1806     -247.00617      652.55222    
     10000   10000          535.37241     -2166.603       3508.3991      5138.8686      5775.3574     -636.48879      2235.0891      3225.0653     -1890.8653      22.559711     -484.32872     -1526.3396     -2217.6693     -245.24671      51600.92       37.229381      37.229381      37.229381      1.207399      -2337.4368     -616.31289     -3546.0594    
     11000   11000          517.48812      732.46446      5514.6873      4955.0425      5582.4297     -627.38728      2150.37        3143.583      -1879.1116      20.976929     -321.12966     -1531.5333     -2210.5427     -241.55196      52390.202      37.41824       37.41824       37.41824       1.189209       930.86297      2496.1262     -1229.5958    
     12000   12000          528.91794      323.71567      5398.0642      5153.9551      5705.7295     -551.77439      2230.3702      3178.2435     -1870.5724      20.229564     -358.74829     -1531.3094     -2219.9875     -244.7464       51706.403      37.254732      37.254732      37.254732      1.2049358     -1265.3072     -261.38705      2497.8413    
     13000   13000          527.45197     -1496.8844      3992.3905      5120.0404      5689.9153     -569.87488      2277.5044      3169.4028     -1874.455       20.584214     -408.58633     -1535.397      -2218.928      -244.9912       51654.735      37.242319      37.242319      37.242319      1.2061411     -1984.4854     -1728.0412     -778.12654    
     14000   14000          517.22378     -1756.0725      3658.0022      4987.5494      5579.5781     -592.02871      2280.9715      3108.0063     -1842.0459      19.747729     -408.61374     -1530.9067     -2219.1879     -243.76716      51914.112      37.30455       37.30455       37.30455       1.2001149     -1769.7629     -1351.8098     -2146.6448    
     15000   15000          527.34201      1709.0402      6279.2665      5003.5693      5688.7291     -685.15983      2167.2954      3174.4631     -1903.8706      20.644592     -374.49024     -1544.7159     -2224.4861     -247.25278      51182.259      37.128421      37.128421      37.128421      1.2172753      3297.0688      2015.9586     -185.90682    
     16000   16000          522.6952      -1859.2222      3791.9345      5216.1137      5638.6015     -422.4877       2304.4623      3217.9719     -1847.2625      20.342631     -366.57436     -1533.0263     -2218.4013     -240.9368       52523.963      37.450058      37.450058      37.450058      1.1861805     -1644.0117     -4200.0443      266.38954    
     17000   17000          516.98423      1342.4945      5831.2664      4817.4868      5576.9941     -759.50729      2136.5832      3061.5515     -1868.8147      19.601495     -342.70009     -1546.473      -2219.2557     -244.4024       51779.18       37.272202      37.272202      37.272202      1.2032423      3610.219       1100.8181     -683.55363    
     18000   18000          523.04105     -1192.3397      4162.0916      5068.2937      5642.3323     -574.03866      2236.3716      3189.0425     -1875.6717      21.269497     -389.40433     -1534.2002     -2221.446      -242.83511      52113.37       37.352217      37.352217      37.352217      1.1955262     -271.07928     -2092.0561     -1213.8838    
     19000   19000          522.87857     -507.12324      4592.8675      4976.3483      5640.5795     -664.23117      2245.6931      3136.0699     -1897.042       21.388121     -405.66312     -1545.0176     -2219.6596     -244.06547      51850.66       37.289346      37.289346      37.289346      1.2015835     -294.00523     -363.39        -863.97451    
     20000   20000          522.56612     -291.32084      4792.1485      5014.1493      5637.209      -623.05975      2196.7776      3202.6838     -1883.9269      20.845325     -386.57318     -1545.3631     -2227.5033     -242.1886       52252.482      37.385424      37.385424      37.385424      1.1923433      527.6463      -1001.9918     -399.61704    
     21000   21000          529.61383     -775.48546      4659.9596      5245.8346      5713.2365     -467.40189      2280.9423      3201.8979     -1867.4599      20.235982     -328.04483     -1549.6916     -2225.2818     -244.28975      51803.057      37.277931      37.277931      37.277931      1.2026877     -24.70399      -1127.858      -1173.8945    
     22000   22000          520.05376      723.51811      5683.4006      5133.8136      5610.1068     -476.29322      2324.9849      3187.2042     -1871.1735      20.190343     -378.16723     -1536.4435     -2222.8884     -242.9682       52084.822      37.345395      37.345395      37.345395      1.1961814      974.93786      1077.5664      118.05011    
     23000   23000          534.17504     -1424.2083      4026.852       5109.4215      5762.4408     -653.01931      2193.4342      3194.0632     -1896.4023      20.628431     -406.8628      -1533.6743     -2224.2057     -242.80311      52120.237      37.353858      37.353858      37.353858      1.1953687     -2149.7395     -701.37049     -1421.5149    
     24000   24000          519.59902     -902.95588      4275.655       4957.6214      5605.2012     -647.57982      2276.3717      3090.4564     -1854.7219      20.715017     -402.24092     -1550.0943     -2228.0659     -244.36561      51786.975      37.274073      37.274073      37.274073      1.2030612     -999.0636      -994.62421     -715.17982    
     25000   25000          525.54627      185.19098      5102.175       4962.5904      5669.3574     -706.76707      2233.2452      3034.7317     -1869.4797      19.313008     -352.60784     -1554.792      -2217.1775     -244.86042      51682.324      37.248948      37.248948      37.248948      1.2054972     -1626.3213      37.15033       2144.7439    
     26000   26000          525.61765     -1671.9523      3593.3754      4885.1306      5670.1275     -784.99698      2100.5167      3081.3116     -1852.4518      20.26618      -371.2328      -1540.1852     -2223.2217     -238.88021      52976.157      37.557224      37.557224      37.557224      1.1760554     -4014.8593     -757.88204     -243.11548    
     27000   27000          526.8388      -578.61733      4650.6087      5082.8612      5683.3007     -600.43958      2284.8494      3183.913      -1913.9152      21.341254     -415.11022     -1538.4316     -2223.0862     -247.0532       51223.606      37.138417      37.138417      37.138417      1.2162927     -62.577895     -914.39488     -758.87921    
     28000   28000          517.12229      160.95596      5066.3442      4944.3659      5578.4834     -634.11746      2190.7378      3168.4873     -1860.3379      21.441689     -390.14514     -1542.8559     -2221.4454     -243.53489      51963.625      37.316406      37.316406      37.316406      1.1989714     -903.62901      980.99202      405.50489    
     29000   29000          524.15814     -830.82092      4363.6141      4984.0794      5654.383      -670.30353      2232.2354      3115.827      -1829.9338      21.191676     -457.54789     -1532.5169     -2219.5591     -247.13055      51207.573      37.134541      37.134541      37.134541      1.2166735      678.11486     -1808.5595     -1362.0182    
     30000   30000          518.90348     -668.20496      4333.8945      4837.6027      5597.6981     -760.09541      2243.7853      3046.2794     -1862.0669      20.093605     -458.22108     -1534.8799     -2215.0859     -244.83147      51688.435      37.250416      37.250416      37.250416      1.2053547      1313.2027      29.07091      -3346.8885    
     31000   31000          545.808       -379.56794      5163.715       5449.7532      5887.9319     -438.17874      2227.8259      3343.1351     -1891.1202      23.666208     -390.97745     -1531.7863     -2218.922      -244.90745      51672.4        37.246564      37.246564      37.246564      1.2057287     -1318.6722     -2164.5774      2344.5458    
     32000   32000          510.39083     -1430.1332      3809.9622      4894.4391      5505.8674     -611.42827      2271.0059      3126.7817     -1891.2186      18.4999       -375.76827     -1537.8321     -2222.8967     -243.38438      51995.76       37.324097      37.324097      37.324097      1.1982304     -1133.7024     -1364.9497     -1791.7476    
     33000   33000          516.24548     -369.99567      4567.5574      4843.0283      5569.0247     -725.99641      2157.5285      3118.6301     -1851.8079      20.09809      -390.7936      -1547.487      -2232.1646     -247.88909      51050.879      37.096626      37.096626      37.096626      1.2204079     -1545.548       650.43964     -214.87869    
     34000   34000          516.74969     -221.0297       4573.7391      4740.0488      5574.464      -834.41516      2191.642       2985.7425     -1876.7405      19.462684     -385.58538     -1542.4391     -2226.4973     -245.28418      51593.036      37.227485      37.227485      37.227485      1.2075835     -379.69042      597.9116      -881.31027    
     35000   35000          511.07588     -1444.2379      3891.4914      4981.4713      5513.2574     -531.78604      2342.9537      3184.6539     -1913.5211      23.118832     -402.243       -1541.7757     -2224.9726     -244.54385      51749.228      37.265014      37.265014      37.265014      1.2039387     -1272.6763     -1179.0621     -1880.9751    
     36000   36000          520.42339      201.64291      5027.6185      4874.9011      5614.0941     -739.19304      2228.0442      3099.212      -1912.2286      21.272532     -411.71747     -1545.4369     -2218.3387     -243.68613      51931.376      37.308685      37.308685      37.308685      1.1997159      1358.3071      134.98222     -888.3606     
     37000   37000          525.7001      -186.1043       4923.5268      5065.2794      5671.017      -605.73761      2240.1307      3172.6778     -1894.628       21.957245     -381.01272     -1540.5815     -2224.2812     -242.30472      52227.443      37.379451      37.379451      37.379451      1.192915      -96.962085      1055.3128     -1516.6636    
     38000   38000          516.34594     -674.36834      4275.0261      4780.8553      5570.1085     -789.25316      2196.0722      3095.1741     -1900.5169      19.231082     -418.8019      -1550.5233     -2229.8884     -246.05363      51431.698      37.188639      37.188639      37.188639      1.2113716      336.69752     -415.99444     -1943.8081    
     39000   39000          523.4514       83.373618      5015.2764      4952.3391      5646.7589     -694.41981      2195.9721      3184.4927     -1927.8279      22.131684     -398.06077     -1542.8692     -2228.2583     -244.48799      51761.053      37.267852      37.267852      37.267852      1.2036637      154.45682     -668.44164      764.10567    
     40000   40000          527.76109     -1289.1573      3965.7087      4932.1182      5693.25       -761.13177      2265.3812      3063.0281     -1877.0068      19.771708     -468.68485     -1537.9069     -2225.7143     -246.19615      51401.924      37.181462      37.181462      37.181462      1.2120733     -332.45221     -1487.414      -2047.6057    
     41000   41000          523.7419       17.439134      5037.1051      5023.5756      5649.8928     -626.31716      2247.5007      3197.2633     -1917.1956      20.343626     -400.7577      -1546.5714     -2226.9001     -237.89131      53196.376      37.609193      37.609193      37.609193      1.1711869      1357.6668     -1008.3145     -297.03489    
     42000   42000          521.14921      463.40379      5257.8891      4911.4733      5621.924      -710.45068      2193.5264      3182.535      -1915.2728      21.194666     -411.76799     -1551.1864     -2229.4796     -246.88712      51258.064      37.146742      37.146742      37.146742      1.215475      -632.95606      469.24137      1553.9261    
     43000   43000          513.10574     -1075.1         3958.8655      4773.0395      5535.1546     -762.11516      2264.4151      3051.932      -1900.6305      19.590018     -422.25497     -1548.0976     -2227.0693     -243.70711      51926.905      37.307614      37.307614      37.307614      1.1998192     -2288.531      -905.00877     -31.760299    
     44000   44000          519.59095      957.57862      5639.9087      4915.3028      5605.1141     -689.8113       2147.5362      3154.9521     -1880.6463      20.432243     -364.22672     -1544.0158     -2223.843      -243.89848      51886.161      37.297854      37.297854      37.297854      1.2007614      1219.7952      2124.0785     -471.13786    
     45000   45000          515.15951     -1167.9247      3985.7118      4865.8737      5557.3098     -691.43607      2304.9303      3028.3978     -1880.4959      20.119553     -388.39414     -1550.2497     -2225.7439     -244.9          51673.973      37.246942      37.246942      37.246942      1.205692       914.77885     -2364.0043     -2054.5487    
     46000   46000          510.70237     -616.42723      4273.339       4738.0284      5509.2281     -771.19978      2167.6258      3072.9242     -1886.245       19.403056     -374.33627     -1544.3446     -2226.2271     -244.82491      51689.822      37.250749      37.250749      37.250749      1.2053224     -328.95205     -1287.6821     -232.64759    
     47000   47000          523.69262      357.06496      5253.8668      4983.2142      5649.3611     -666.14693      2158.7739      3204.4563     -1904.7645      21.688956     -384.53218     -1538.0861     -2223.6833     -243.48463      51974.352      37.318974      37.318974      37.318974      1.1987239     -224.58939      1204.8283      90.956015    
     48000   48000          530.79505     -149.07999      4839.9976      4952.2913      5725.979      -773.68767      2106.8064      3154.7449     -1853.1458      20.966947     -442.92641     -1537.8577     -2222.2761     -245.01953      51648.763      37.240883      37.240883      37.240883      1.2062805     -133.98473      178.74924     -492.00449    
     49000   49000          518.50836      538.20468      5527.3762      5118.7918      5593.4357     -474.64395      2303.6706      3253.4907     -1906.6937      22.069274     -368.59182     -1550.7341     -2227.8548     -243.1096       52054.529      37.338154      37.338154      37.338154      1.1968776     -177.41082      3581.5529     -1789.528     
     50000   50000          522.85378      1152.0815      5792.5743      4926.3057      5640.3121     -714.00638      2199.3299      3069.6817     -1840.0244      21.001429     -387.07958     -1552.1859     -2224.7295     -245.45235      51557.688      37.218981      37.218981      37.218981      1.2084114      91.757649      2891.8337      472.65333    
     51000   51000          525.97315      245.89874      5079.8944      4891.4006      5673.9625     -782.56193      2128.4466      3126.2139     -1894.1344      19.781398     -414.63031     -1535.1881     -2213.0511     -240.76624      52561.172      37.4589        37.4589        37.4589        1.1853407      732.53996      905.63631     -900.48005    
     52000   52000          521.96674      1624.9639      6162.8014      4923.2826      5630.7431     -707.46046      2210.676       3122.8063     -1914.3874      20.264997     -385.5787      -1541.7367     -2219.505      -241.95084      52303.831      37.397666      37.397666      37.397666      1.1911727      2059.514       106.60487      2708.7729    
     53000   53000          515.16715     -1586.8822      3766.9127      4974.18        5557.3922     -583.21224      2198.8985      3230.8175     -1864.8086      21.052804     -415.26509     -1540.7322     -2213.1752     -242.59273      52165.436      37.364652      37.364652      37.364652      1.1943329     -1134.4394     -591.88479     -3034.3224    
     54000   54000          517.17452      120.59136      4942.3172      4851.7932      5579.0468     -727.25364      2112.5484      3180.3039     -1878.5232      21.057313     -392.06444     -1545.8757     -2224.6998     -245.86048      51472.102      37.198375      37.198375      37.198375      1.2104207      1510.577      -1169.3317      20.528702    
     55000   55000          526.57364     -150.91422      4926.3677      5040.0868      5680.4403     -640.35355      2270.6619      3152.9583     -1910.4653      21.232072     -400.94364     -1548.653      -2225.1438     -244.92523      51668.649      37.245662      37.245662      37.245662      1.2058163      2113.9157     -1815.6061     -751.05221    
     56000   56000          513.77548     -357.03816      4475.8054      4743.5879      5542.3795     -798.79157      2194.8502      3074.5315     -1893.3284      21.019462     -417.6574      -1545.8505     -2232.3564     -246.07587      51427.048      37.187519      37.187519      37.187519      1.2114811     -320.52381      238.91799     -989.50866    
     57000   57000          520.91448     -218.05788      4745.8012      4909.7281      5619.3919     -709.66381      2150.967       3163.2202     -1879.2078      20.493449     -394.0654      -1542.7588     -2228.3123     -245.50384      51546.874      37.216379      37.216379      37.216379      1.2086649      891.3036      -387.6494      -1157.8279    
     58000   58000          516.17268      747.16525      5487.6561      4915.5977      5568.2394     -652.6417       2137.1804      3228.2178     -1867.9179      22.03195      -419.99643     -1534.7967     -2217.3608     -241.05318      52498.605      37.44403       37.44403       37.44403       1.1867534      1272.5724      1732.7901     -763.86678    
     59000   59000          529.51617      910.51805      5768.0204      5084.3513      5712.183      -627.83167      2183.5448      3204.2296     -1898.8803      21.119962     -379.14741     -1535.6881     -2223.0103     -245.79843      51485.096      37.201505      37.201505      37.201505      1.2101152     -436.05415      1139.3938      2028.2145    
     60000   60000          518.32668     -526.11699      4461.6583      4855.5176      5591.4758     -735.95823      2143.2348      3144.16       -1878.735       20.942899     -410.46173     -1533.7079     -2221.3913     -246.53452      51331.374      37.164443      37.164443      37.164443      1.2137392     -17.976543      51.706727     -1612.0811    
     61000   61000          512.17848     -1715.1404      3570.4048      4856.9062      5525.1517     -668.24556      2232.8738      3202.3498     -1922.6019      20.615393     -447.65229     -1530.2353     -2223.595      -246.05146      51432.151      37.188748      37.188748      37.188748      1.2113609     -2257.7192     -382.13068     -2505.5714    
     62000   62000          512.39585     -27.013115      4745.9029      4766.2041      5527.4967     -761.2926       2196.628       3177.217      -1930.9622      21.482853     -445.71662     -1550.784      -2229.1576     -245.57852      51531.199      37.212606      37.212606      37.212606      1.2090326      287.44256     -2511.4519      2142.97      
     63000   63000          509.53351      181.97413      5014.3584      4878.2885      5496.619      -618.33049      2257.6705      3191.8084     -1921.2772      22.638223     -408.83234     -1537.376      -2222.9622     -246.82215      51271.557      37.150001      37.150001      37.150001      1.2151552      1632.5261     -1260.0565      173.45279    
     64000   64000          508.3605      -673.39145      4083.9255      4590.9877      5483.9651     -892.97735      2104.3261      3036.5679     -1833.7716      19.523683     -458.39639     -1538.0837     -2223.1433     -245.09974      51631.862      37.236821      37.236821      37.236821      1.2066754     -200.19509     -870.27224     -949.70702    
     65000   65000          512.98156     -1318.1932      3768.9764      4758.2444      5533.815      -775.57059      2246.7495      3088.8756     -1897.3051      21.535708     -459.44055     -1543.7383     -2232.2474     -245.92438      51458.727      37.195153      37.195153      37.195153      1.2107353     -2146.4485     -1529.4664     -278.66463    
     66000   66000          506.88911      255.85548      4934.3211      4739.6022      5468.0924     -728.49021      2166.0204      3120.8711     -1879.5003      19.163427     -391.14654     -1536.3637     -2227.5346     -242.50636      52184.017      37.369088      37.369088      37.369088      1.1939077      432.1335      -108.36528      443.79823    
     67000   67000          503.72266      253.72568      4857.1272      4665.5479      5433.9341     -768.38621      2148.1732      3169.942      -1912.9474      20.832725     -419.30681     -1546.5825     -2228.4973     -244.42879      51773.588      37.270861      37.270861      37.270861      1.2033722      423.94931      504.47456     -167.24683    
     68000   68000          525.56097      330.13538      5090.6991      4842.8283      5669.5161     -826.68781      2206.5459      3039.8869     -1902.9687      19.475954     -427.11498     -1539.1813     -2223.3316     -245.81209      51482.235      37.200816      37.200816      37.200816      1.2101825      398.49058      1003.9776     -412.062      
     69000   69000          513.56067     -638.65705      4407.1648      4886.2854      5540.0622     -653.77681      2263.5508      3158.1013     -1905.0605      21.725706     -426.53152     -1541.3933     -2224.1693     -246.01373      51440.039      37.190649      37.190649      37.190649      1.2111752      77.484699     -1205.6481     -787.80773    
     70000   70000          511.90356      1593.1218      6119.5721      4907.1053      5522.1861     -615.08072      2182.8859      3204.2236     -1946.0612      21.452188     -310.06271     -1542.9678     -2224.5507     -242.50219      52184.913      37.369302      37.369302      37.369302      1.1938872      3245.6028      53.522637      1480.2398    
     71000   71000          498.78818     -307.48111      4468.3633      4699.0415      5380.7032     -681.66166      2209.8081      3199.4445     -1927.7488      22.870094     -411.95385     -1544.874      -2229.2077     -246.00747      51441.348      37.190965      37.190965      37.190965      1.2111444     -1134.4692      1103.3528     -891.32691    
     72000   72000          525.85795      673.04043      5468.4513      4965.4198      5672.7197     -707.29991      2197.3566      3079.8237     -1857.6719      21.693782     -384.83679     -1536.0141     -2227.6511     -246.93493      51248.14       37.144345      37.144345      37.144345      1.2157104      1916.2131     -402.43549      505.34367    
     73000   73000          505.05982     -1016.6973      3907.5775      4665.6494      5448.3589     -782.70948      2170.1664      3109.3037     -1901.8185      20.384873     -423.51857     -1533.5904     -2223.637      -247.52425      51126.125      37.114843      37.114843      37.114843      1.2186118     -352.73242     -3382.2045      684.84513    
     74000   74000          509.49511      1557.5557      5893.4063      4729.0981      5496.2047     -767.10664      2172.9666      3160.5903     -1910.4811      20.819218     -444.8583      -1541.6743     -2224.469      -246.89492      51256.444      37.146351      37.146351      37.146351      1.2155135      3033.1568      2821.1644     -1181.6541    
     75000   75000          507.52008     -715.10979      4075.6131      4603.7997      5474.8991     -871.09931      2215.1758      3077.7142     -1913.5105      21.493058     -514.67108     -1534.225      -2223.0759     -249.87444      50645.259      36.998115      36.998115      36.998115      1.2301822     -1678.3218      1432.029      -1899.0366    
     76000   76000          518.93811      235.53877      4964.661       4791.1681      5598.0717     -806.90359      2126.9633      3144.1238     -1900.689       20.210854     -430.44494     -1542.1082     -2224.9595     -250.5632       50506.043      36.964183      36.964183      36.964183      1.2335731      895.13842     -583.03663      394.51452    
     77000   77000          498.90423     -1272.9916      3568.5199      4514.3982      5381.9552     -867.55697      2164.2285      3097.0026     -1919.3573      20.238194     -456.65448     -1545.9434     -2227.0712     -248.38582      50948.784      37.07188       37.07188       37.07188       1.2228535     -963.3406      -843.07707     -2012.5571    
     78000   78000          514.05094      2010.6143      6146.4704      4633.5105      5545.351      -911.84055      2074.2318      3107.2262     -1932.4366      20.374746     -398.70447     -1555.4181     -2227.1141     -245.2663       51596.799      37.22839       37.22839       37.22839       1.2074954      3741.8101      1584.7591      705.27377    
     79000   79000          516.14632     -1172.2931      3841.7138      4717.4956      5567.955      -850.45939      2162.5477      3105.0434     -1895.5249      20.332829     -468.9428      -1544.1985     -2229.7172     -247.0454       51225.224      37.138807      37.138807      37.138807      1.2162543      985.2645      -2035.7625     -2466.3812    
     80000   80000          508.40197      64.863171      4822.6955      4775.1677      5484.4125     -709.24473      2235.2763      3159.8398     -1899.862       20.934859     -441.57235     -1554.3397     -2229.5216     -251.8764       50242.721      36.899832      36.899832      36.899832      1.2400383      45.184482      633.85282     -484.44779    
     81000   81000          517.55334     -47.981194      4760.5488      4796.3411      5583.1333     -786.79223      2165.8689      3160.2552     -1934.8389      20.512913     -416.56873     -1552.0284     -2229.9932     -247.41031      51149.671      37.12054       37.12054       37.12054       1.2180508     -430.39377     -800.41317      1086.8634    
     82000   82000          509.74179     -1144.3181      3832.768       4672.7012      5498.8658     -826.16462      2222.5875      3171.5891     -1942.3964      21.89541      -522.7963      -1546.1524     -2230.8915     -251.44243      50329.437      36.921048      36.921048      36.921048      1.2379017      239.05319     -2781.8883     -890.11921    
     83000   83000          513.95711     -238.25683      4529.306       4706.1385      5544.3388     -838.20038      2202.5586      3091.1929     -1885.3823      20.017563     -481.58398     -1555.1283     -2229.8748     -248.66802      50890.966      37.057851      37.057851      37.057851      1.2242428     -1417.8985     -60.580814      763.70882    
     84000   84000          506.40172      1341.6418      5490.1395      4522.4996      5462.8347     -940.33508      2147.3636      3125.5259     -1923.5732      19.639588     -507.23563     -1569.7522     -2232.3031     -255.89355      49453.985      36.705721      36.705721      36.705721      1.2598155      1104.8848      1303.7564      1616.2842    
     85000   85000          514.01898      1235.747       5726.4336      4811.537       5545.0063     -733.46926      2173.6577      3208.7906     -1920.5682      21.688275     -438.56351     -1550.768      -2227.7061     -249.28381      50765.253      37.027312      37.027312      37.027312      1.2272744      1500.5636      1223.9054      982.77207    
     86000   86000          521.98532     -104.87414      4611.7864      4688.7666      5630.9436     -942.177        2167.5221      3080.0458     -1902.7049      20.90824      -512.45629     -1561.3966     -2234.0954     -251.43532      50330.86       36.921396      36.921396      36.921396      1.2378667     -1229.279       54.102372      860.55417    
     87000   87000          505.60089      985.58638      5229.879       4509.7517      5454.1957     -944.44397      2077.2405      3143.0893     -1928.6139      22.701971     -453.47664     -1566.3468     -2239.0385     -252.59335      50100.114      36.864887      36.864887      36.864887      1.243568       1715.4853     -990.54253      2231.8164    
     88000   88000          502.88484     -62.500957      4411.6127      4458.0354      5424.8962     -966.86082      2133.6024      3042.802      -1887.7766      19.361395     -483.35313     -1556.4853     -2235.0115     -248.48074      50929.322      37.067159      37.067159      37.067159      1.2233208      274.21564     -2530.7992      2069.0807    
     89000   89000          513.30889      633.91155      5095.2799      4627.817       5537.3461     -909.52907      2160.318       3079.6447     -1911.3162      19.957903     -478.98317     -1553.0307     -2226.1195     -250.27532      50564.137      36.97835       36.97835       36.97835       1.2321559      183.31754      572.37771      1146.0394    
     90000   90000          508.83049     -456.92975      4252.7653      4589.4966      5489.0351     -899.53855      2232.3048      3052.3756     -1912.7215      19.719623     -510.69409     -1554.9819     -2225.541      -250.43931      50531.028      36.970277      36.970277      36.970277      1.2329632      1011.6252     -176.25014     -2206.1643    
     91000   91000          502.23586      1208.4229      5488.2695      4593.3713      5417.8953     -824.52399      2187.9601      3109.9935     -1920.873       21.033748     -447.7786      -1547.6747     -2227.185      -249.21939      50778.375      37.030502      37.030502      37.030502      1.2269573     -725.54859      1952.9947      2397.8227    
     92000   92000          516.0183       289.7151       4988.8265      4774.259       5566.5741     -792.31508      2162.295       3124.8658     -1881.037       20.608888     -451.06151     -1543.2083     -2224.7779     -249.19742      50782.851      37.03159       37.03159       37.03159       1.2268491     -48.626289      1357.8275     -440.05592    
     93000   93000          503.66737     -554.67997      4021.3337      4432.7799      5433.3378     -1000.5579      2137.2697      3038.1597     -1896.0403      20.14324      -531.84875     -1541.4763     -2226.7651     -248.80892      50862.147      37.050855      37.050855      37.050855      1.2249365     -1139.9856      1440.4983     -1964.5526    
     94000   94000          512.59593     -1085.8508      3912.1523      4716.9955      5529.6551     -812.65954      2194.9761      3081.2571     -1888.8771      19.944423     -436.64616     -1557.2184     -2226.0955     -248.99773      50823.579      37.041487      37.041487      37.041487      1.225866      -2872.6362     -218.28212     -166.63412    
     95000   95000          503.03505     -1753.228       3195.0694      4486.7679      5426.5166     -939.74863      2246.7314      3052.0828     -1933.6536      21.601739     -549.00327     -1545.5052     -2232.0025     -250.50347      50518.086      36.967121      36.967121      36.967121      1.2332791     -650.8832      -1421.0155     -3187.7852    
     96000   96000          504.80977      1427.6776      5690.7702      4641.4848      5445.6614     -804.1766       2163.8654      3080.4266     -1874.4879      20.098129     -397.93298     -1561.5728     -2234.5732     -251.11523      50395.014      36.937077      36.937077      36.937077      1.2362909      1628.3957      1620.3439      1034.2933    
     97000   97000          506.0502       95.218633      4661.2778      4591.1789      5459.0427     -867.86379      2113.0735      3044.3666     -1860.4882      19.332734     -381.36701     -1568.2043     -2234.5771     -250.6958       50479.329      36.957665      36.957665      36.957665      1.2342259     -483.94929      901.13251     -131.52732    
     98000   98000          499.02252     -1920.943       3158.9978      4592.4598      5383.2312     -790.77146      2167.0935      3129.832      -1876.5574      21.26713      -474.67195     -1540.7812     -2216.9536     -247.32319      51167.687      37.124897      37.124897      37.124897      1.2176219     -652.73127     -993.70802     -4116.3899    
     99000   99000          514.52028     -1700.185       3626.5085      4901.5275      5550.4141     -648.8866       2213.3878      3181.3602     -1874.9098      21.336566     -405.85479     -1549.7877     -2234.4189     -246.10251      51421.481      37.186177      37.186177      37.186177      1.2116123     -1188.9046     -2070.2609     -1841.3896    
    100000   100000         502.20644     -52.728694      4532.4433      4571.2591      5417.5779     -846.31882      2150.3018      3155.6433     -1927.857       20.80278      -469.42122     -1550.4666     -2225.3219     -250.71189      50476.089      36.956874      36.956874      36.956874      1.2343052      60.150814     -130.90995     -87.426942    
    101000   101000         516.19695      338.37242      4912.3542      4654.0503      5568.5012     -914.45096      2165.7333      2968.7494     -1876.1766      19.571789     -399.25372     -1560.3128     -2232.7623     -241.7689       52343.191      37.407045      37.407045      37.407045      1.190277      -620.60926      349.77962      1285.9469    
    102000   102000         499.72301     -859.12128      3939.5192      4593.0564      5390.7877     -797.73137      2196.198       3026.3972     -1898.8512      19.503905     -370.03481     -1549.7742     -2221.1703     -242.61671      52160.28       37.363421      37.363421      37.363421      1.194451      -1797.8764     -1198.7837      419.29624    
    103000   103000         508.10256     -1476.454       3555.889       4691.0842      5481.1826     -790.09838      2177.9899      3020.3428     -1880.7208      21.802445     -360.63668     -1541.6607     -2227.2153     -240.04126      52719.92       37.496573      37.496573      37.496573      1.1817715     -3856.8086      817.62721     -1390.1806    
    104000   104000         520.75352     -251.66974      4681.8513      4875.7603      5617.6555     -741.89522      2106.3632      3124.9176     -1887.1015      20.127346     -323.80708     -1554.469      -2227.9257     -239.5353       52831.278      37.522956      37.522956      37.522956      1.1792805     -1608.2921      469.49437      383.78855    
    105000   105000         497.87954     -299.2403       4323.462       4551.5621      5370.9012     -819.3391       2064.7233      3137.8847     -1864.4073      20.651318     -411.74785     -1543.4028     -2223.0404     -242.12022      52267.241      37.388943      37.388943      37.388943      1.1920066      278.51339     -551.57629     -624.65799    
    106000   106000         507.77256      812.33229      5230.4246      4618.0926      5477.6226     -859.53006      2049.5614      3116.2655     -1882.2598      20.290859     -379.47864     -1554.7679     -2229.1415     -244.84052      51686.525      37.249957      37.249957      37.249957      1.2053992     -419.42252      2001.2056      855.21379    
    107000   107000         499.82759      410.62551      4645.9023      4339.4002      5391.9159     -1052.5157      2108.2915      2976.1942     -1913.0053      20.686395     -468.68656     -1548.6266     -2227.3694     -247.25724      51181.335      37.128198      37.128198      37.128198      1.2172972      1426.3705     -403.28787      208.79394    
    108000   108000         500.59972     -614.23685      4064.2118      4528.9492      5400.2453     -871.29609      2172.9112      3097.2518     -1939.5093      21.020755     -449.02293     -1547.5764     -2226.3712     -243.92979      51879.501      37.296258      37.296258      37.296258      1.2009155     -1424.6        -381.75307     -36.357521    
    109000   109000         503.09726      451.7906       4952.1504      4612.5133      5427.1876     -814.6743       2090.5138      3065.0969     -1883.7057      19.643161     -338.35094     -1547.7302     -2220.1413     -245.50401      51546.84       37.21637       37.21637       37.21637       1.2086657      91.153392      1878.2072     -613.98882    
    110000   110000         495.74386     -933.03654      3893.1962      4604.5484      5347.8624     -743.31404      2169.3269      3146.1134     -1910.8206      21.138483     -393.37565     -1546.7473     -2228.9493     -242.07532      52276.935      37.391255      37.391255      37.391255      1.1917856     -1722.3798     -551.77602     -524.95377    
    111000   111000         496.51751      1456.64        5618.2871      4508.2119      5356.2082     -847.99628      2088.8948      3064.8928     -1883.7034      19.992523     -366.1873      -1545.6606     -2226.2251     -242.17894      52254.567      37.385921      37.385921      37.385921      1.1922957      1194.2409      1519.6088      1656.0704    
    112000   112000         507.2389       553.84744      5139.4447      4718.6701      5471.8658     -753.19567      2159.6106      3097.2934     -1887.5087      21.419299     -383.03317     -1537.9114     -2223.0658     -242.9278       52093.484      37.347466      37.347466      37.347466      1.1959825      628.84315      531.63903      501.06013    
    113000   113000         514.60857     -1783.2527      3218.3876      4559.5107      5551.3664     -991.85577      2101.292       3019.5974     -1913.4199      20.559168     -463.02261     -1531.5503     -2225.3115     -245.4035       51567.951      37.22145       37.22145       37.22145       1.2081709     -1130.2745     -1459.2956     -2760.1879    
    114000   114000         501.27525     -611.33548      4142.9862      4607.8357      5407.5326     -799.69686      2192.8427      3053.3162     -1891.0551      19.854276     -426.96911     -1524.7573     -2222.9284     -242.71897      52138.305      37.358174      37.358174      37.358174      1.1949544     -2231.6521     -577.29226      974.93791    
    115000   115000         486.67129     -161.38233      4318.6959      4440.0798      5249.9916     -809.91185      2136.9333      3110.3872     -1879.5548      20.40854      -431.85039     -1541.4003     -2224.8354     -245.37563      51573.808      37.222859      37.222859      37.222859      1.2080337     -479.88765      5.1801281     -9.439485     
    116000   116000         496.60894     -441.45633      4050.3372      4386.4843      5357.1946     -970.71032      2114.118       3029.3488     -1943.7694      20.888012     -438.39171     -1532.6066     -2220.2974     -242.37897      52211.444      37.375634      37.375634      37.375634      1.1932805     -457.49509     -174.30386     -692.57003    
    117000   117000         496.38409     -50.924162      4491.5686      4530.2129      5354.769      -824.55602      2168.0691      3092.6365     -1938.1675      21.425544     -410.94315     -1536.5396     -2221.037      -243.20619      52033.855      37.33321       37.33321       37.33321       1.1973531     -796.46656      1534.1056     -890.41156    
    118000   118000         500.44908      197.17915      4710.1023      4558.2795      5398.6202     -840.34075      2083.7096      3095.3885     -1915.852       21.519756     -377.53517     -1530.7994     -2216.772      -239.69587      52795.886      37.514575      37.514575      37.514575      1.1800711      556.46433      1431.0941     -1396.021     
    119000   119000         496.94953     -301.76452      4219.5845      4449.8128      5360.8687     -911.0559       2173.2548      2967.2329     -1885.4327      20.464689     -431.79971     -1536.4503     -2218.3256     -241.9057       52313.591      37.399992      37.399992      37.399992      1.1909505     -285.9248       213.54426     -832.91303    
    120000   120000         504.94225     -5.0062649      4492.2406      4496.0545      5447.0906     -951.03608      2148.4376      2930.0576     -1873.9954      19.465003     -416.33364     -1534.8441     -2223.8232     -242.26137      52236.788      37.381681      37.381681      37.381681      1.1927015      764.13013     -1887.3556      1108.2067    
    121000   121000         506.32809      403.53882      4839.5032      4526.355       5462.0403     -935.6853       2093.7394      2966.483      -1866.4733      19.165642     -390.50255     -1540.9796     -2217.1179     -237.83291      53209.439      37.612271      37.612271      37.612271      1.1708994      1232.544       1059.9634     -1081.8909    
    122000   122000         497.69469      1137.8877      5396.3696      4538.4692      5368.9071     -830.43794      2147.6355      3063.195      -1907.6903      19.684968     -396.84261     -1535.2602     -2221.1603     -244.79302      51696.555      37.252367      37.252367      37.252367      1.2051654      2547.059      -429.66346      1296.2676    
    123000   123000         508.88376     -960.74041      3908.7477      4639.7561      5489.6098     -849.85376      2193.7645      2998.2633     -1894.3812      18.991692     -418.76459     -1528.2015     -2219.5259     -242.56058      52172.35       37.366303      37.366303      37.366303      1.1941746     -1891.4309     -290.94629     -699.84402    
    124000   124000         495.41896      1123.4672      5267.3442      4416.3164      5344.3575     -928.04113      2168.0427      2939.7221     -1871.5378      19.265834     -432.5296      -1534.7916     -2216.2127     -243.64257      51940.659      37.310908      37.310908      37.310908      1.1995015      1413.2482      376.20673      1580.9468    
    125000   125000         494.02156      620.11424      4916.0455      4442.7113      5329.283      -886.57175      2112.2553      2980.0789     -1861.6366      20.262791     -376.37412     -1540.1025     -2221.0555     -241.79109      52338.387      37.4059        37.4059        37.4059        1.1903863      2208.7557      1457.0842     -1805.4972    
    126000   126000         505.32127     -193.46269      4540.515       4688.8863      5451.1793     -762.29302      2149.3205      3058.671      -1899.8414      19.252955     -343.56568     -1527.6355     -2218.4949     -240.64891      52586.798      37.464986      37.464986      37.464986      1.1847631      868.50844      490.33485     -1939.2314    
    127000   127000         501.84971     -805.66046      3893.0451      4504.6389      5413.7296     -909.09067      2162.6344      2933.1695     -1894.4374      20.336738     -372.62635     -1534.3586     -2223.809      -243.12267      52051.731      37.337485      37.337485      37.337485      1.1969419     -696.06828     -2467.8344      746.92126    
    128000   128000         509.70946      1055.4803      5424.7295      4615.8706      5498.517      -882.6464       2058.7493      3059.8076     -1907.2477      21.078743     -355.94308     -1538.1798     -2220.9114     -240.83184      52546.854      37.455498      37.455498      37.455498      1.1856637      905.64456      2237.7079      23.088503    
    129000   129000         510.30409      47.473527      4730.7735      4694.832       5504.9317     -810.09971      2101.0233      3150.2068     -1903.8879      20.716413     -413.78036     -1544.2484     -2220.1296     -243.77682      51912.055      37.304058      37.304058      37.304058      1.2001624      584.37102      41.262641     -483.21308    
    130000   130000         497.29549     -1101.9611      3517.8831      4351.8144      5364.6007     -1012.7863      2030.5181      3012.8885     -1869.4355      19.587373     -436.49688     -1547.6252     -2222.2228     -243.87791      51890.536      37.298902      37.298902      37.298902      1.2006601     -1446.2407     -936.34451     -923.29795    
    131000   131000         505.65831     -510.47612      4179.1219      4566.3325      5454.815      -888.48256      2164.5489      3005.443      -1901.4247      19.216144     -417.67012     -1538.2774     -2220.3184     -243.3127       52011.079      37.327762      37.327762      37.327762      1.1978774     -178.54272     -1567.9354      215.04971    
    132000   132000         506.35301     -690.5396       4169.6914      4697.1421      5462.3092     -765.16706      2188.3524      3030.474      -1893.5276      19.528597     -362.31503     -1535.39       -2212.2895     -241.62577      52374.198      37.41443       37.41443       37.41443       1.1895724     -1156.2008     -622.3686      -293.04943    
    133000   133000         492.19565      106.37299      4562.5872      4481.2402      5309.586      -828.34575      2137.0294      3071.4121     -1925.4099      21.501617     -384.61282     -1539.1087     -2209.1575     -241.33838      52436.566      37.429275      37.429275      37.429275      1.1881575     -827.17299      1259.0118     -112.71985    
    134000   134000         496.85426      337.74125      4735.558       4481.5872      5359.8409     -878.25372      2154.3013      3058.4026     -1912.3689      20.597875     -449.68363     -1533.2398     -2216.2632     -245.43524      51561.282      37.219846      37.219846      37.219846      1.2083272      1659.1478     -268.18699     -377.73709    
    135000   135000         499.28104      543.16983      4915.147       4503.4113      5386.02       -882.6087       2123.2146      2991.596      -1858.6135      19.090888     -397.67064     -1541.1387     -2219.0873     -243.47457      51976.499      37.319488      37.319488      37.319488      1.1986744     -577.55995     -607.97512      2815.0445    
    136000   136000         495.84491     -985.24559      3699.4985      4451.131       5348.9525     -897.82153      2158.191       3023.3135     -1928.6084      20.62967      -401.17657     -1548.0761     -2222.0945     -241.92207      52310.051      37.399149      37.399149      37.399149      1.1910311     -1993.3256      460.57557     -1422.9868    
    137000   137000         488.21547      432.899        4705.3012      4378.6256      5266.6495     -888.02392      2160.3333      3035.3848     -1887.9311      19.607467     -462.0872      -1532.5707     -2220.7605     -244.57182      51743.311      37.263594      37.263594      37.263594      1.2040764     -295.53252      122.51069      1471.7188    
    138000   138000         490.91282     -1832.9111      3050.7731      4421.5486      5295.7474     -874.1988       2216.2589      2933.8584     -1896.3568      18.202553     -384.88332     -1542.4252     -2218.8534     -246.78092      51280.123      37.15207       37.15207       37.15207       1.2149522     -1387.0923     -1563.5183     -2548.1225    
    139000   139000         497.81033      1551.4875      5630.4309      4473.7315      5370.1546     -896.4231       2133.7185      3035.2826     -1901.3698      20.051574     -413.94272     -1548.8164     -2221.3469     -247.55076      51120.65       37.113518      37.113518      37.113518      1.2187423      3283.4936      1504.8952     -133.9263     
    140000   140000         498.28767     -1110.0815      3609.5047      4448.6536      5375.3039     -926.65037      2152.6068      3000.2984     -1894.2521      19.750166     -426.91499     -1548.9274     -2229.2112     -244.14754      51833.23       37.285167      37.285167      37.285167      1.2019876      476.7516      -2286.8513     -1520.1447    
    141000   141000         488.84793     -753.88171      3773.0083      4340.5061      5273.4723     -932.96619      2077.5441      3075.137      -1924.9058      20.783296     -406.68605     -1549.217      -2225.6218     -245.17468      51616.08       37.233026      37.233026      37.233026      1.2070444     -359.65442     -1667.6888     -234.30195    
    142000   142000         503.13363     -1103.2992      3666.3887      4497.8216      5427.58       -929.75837      2144.0237      3062.9928     -1928.6025      22.296226     -474.48384     -1540.2535     -2215.7313     -244.90779      51672.329      37.246547      37.246547      37.246547      1.2057304     -2736.2899      758.87886     -1332.4865    
    143000   143000         491.98318      1166.9584      5108.7646      4246.8266      5307.2939     -1060.4673      2095.3507      2997.8548     -1928.6032      21.628691     -484.08188     -1547.6302     -2214.9862     -249.87101      50645.955      36.998284      36.998284      36.998284      1.2301653      1533.2732      2214.2584     -246.65638    
    144000   144000         502.4522       347.96093      4808.4227      4554.5068      5420.229      -865.72216      2171.3803      3123.2315     -1928.2167      22.326126     -486.76558     -1549.2855     -2218.3923     -252.91645      50036.112      36.849182      36.849182      36.849182      1.2451587      354.94395      1218.7482     -529.80933    
    145000   145000         482.23839     -14.625144      4311.1885      4322.0417      5202.1716     -880.12989      2191.8021      3056.7294     -1926.98        20.080271     -447.36423     -1554.4774     -2219.9199     -248.70298      50883.813      37.056115      37.056115      37.056115      1.2244149      1727.222      -325.66924     -1445.4281    
    146000   146000         496.60498      938.32895      5059.9069      4365.959       5357.1518     -991.19282      2051.3907      3121.2319     -1927.9999      22.556401     -503.9521      -1536.5501     -2217.8697     -249.55415      50710.26       37.013937      37.013937      37.013937      1.2286054      915.69359      1114.6509      784.64232    
    147000   147000         498.48348      2091.2088      5719.0091      4189.9109      5377.4162     -1187.5054      2110.0602      2917.128      -1949.926       19.977328     -497.65623     -1559.5254     -2227.5633     -252.40534      50137.433      36.874038      36.874038      36.874038      1.2426424      2276.7824      1988.9314      2007.9126    
    148000   148000         497.70444      1016.6095      5244.03        4496.1558      5369.0123     -872.85658      2132.8344      3088.8552     -1916.7718      20.350216     -412.28895     -1559.8785     -2225.9572     -250.87773      50442.723      36.948729      36.948729      36.948729      1.2351216      1104.0176      2071.3536     -125.54279    
    149000   149000         491.2373      -611.12845      3775.0278      4225.3648      5299.2477     -1073.8829      2069.4037      3024.3236     -1942.0425      21.726634     -469.89703     -1554.6906     -2222.7067     -250.45594      50527.672      36.969459      36.969459      36.969459      1.2330451     -952.442       -199.93518     -681.00818    
    150000   150000         500.54873     -1357.05        3465.4447      4473.1668      5399.6952     -926.52838      2170.0798      3066.7034     -1911.541       21.270547     -497.27013     -1551.2151     -2224.5558     -248.5373       50917.733      37.064347      37.064347      37.064347      1.2235992     -95.509509     -2048.1737     -1927.4666    
    151000   151000         498.62495     -1257.4377      3309.0279      4258.5736      5378.9424     -1120.3688      2078.8497      2946.8205     -1910.9103      20.257009     -477.04582     -1547.6278     -2230.7121     -244.40335      51778.979      37.272154      37.272154      37.272154      1.2032469     -1659.1323     -1875.7398     -237.44115    
    152000   152000         503.52753      974.65134      5053.0047      4336.6377      5431.8292     -1095.1915      2076.2249      2954.1719     -1888.68        19.912107     -485.7339      -1546.2185     -2224.868      -251.10205      50397.661      36.937724      36.937724      36.937724      1.236226       1188.7521      363.0051       1372.1968    
    153000   153000         497.09319     -1072.3758      3697.7632      4502.7355      5362.4184     -859.68293      2225.3836      3025.8754     -1874.0479      21.205174     -474.12748     -1550.5696     -2233.4022     -245.86833      51470.458      37.197979      37.197979      37.197979      1.2104594     -1594.8633     -363.85227     -1258.4117    
    154000   154000         493.40847      111.79403      4361.747       4278.297       5322.6693     -1044.3723      2033.4625      2979.5531     -1895.754       19.427422     -399.87038     -1555.0059     -2226.1849     -247.24594      51183.674      37.128763      37.128763      37.128763      1.2172416     -353.90354      1245.7492     -556.46355    
    155000   155000         512.71268     -33.52819       4540.3312      4565.4449      5530.9144     -965.46955      2144.5144      3072.651      -1911.2988      21.627923     -514.78536     -1550.6424     -2227.5362     -246.3979       51359.836      37.171311      37.171311      37.171311      1.2130665      1529.5431     -177.8244      -1452.3033    
    156000   156000         497.77502     -524.99605      3782.5692      4172.0582      5369.7737     -1197.7155      2069.0684      2936.5511     -1935.1058      20.517108     -497.37065     -1561.3542     -2230.0214     -248.7696       50870.186      37.052807      37.052807      37.052807      1.2247429     -734.74886      550.39384     -1390.6331    
    157000   157000         489.62534     -1450.8661      3120.1514      4192.0222      5281.8586     -1089.8364      2103.0464      2975.4895     -1911.0394      19.715669     -502.9347      -1551.6484     -2222.4655     -249.81667      50656.97       37.000967      37.000967      37.000967      1.2298978     -1918.1964     -568.64013     -1865.7617    
    158000   158000         512.3249      -482.47446      4025.9345      4383.7974      5526.7313     -1142.9338      2071.2041      3008.4204     -1956.7543      19.540386     -505.71436     -1556.345      -2223.285      -248.82507      50858.846      37.050053      37.050053      37.050053      1.225016      -849.7855       436.29961     -1033.9375    
    159000   159000         490.21332      222.22844      4290.7221      4124           5288.2014     -1164.2015      2059.3553      2971.6376     -1924.8833      19.953921     -524.36538     -1546.9576     -2218.942      -246.00438      51441.995      37.191121      37.191121      37.191121      1.2111291     -573.56185     -40.436911      1280.6841    
    160000   160000         492.31111      413.71971      4583.2437      4278.021       5310.8315     -1032.8105      2099.7026      3000.6521     -1896.3727      20.432048     -464.46009     -1563.428      -2229.3363     -250.16458      50586.522      36.983806      36.983806      36.983806      1.2316106      1066.935      -175.14097      349.36514    
    161000   161000         493.25664      1133.2755      5121.5197      4284.256       5321.0315     -1036.7755      2094.5661      3002.076      -1925.7834      20.175802     -465.40242     -1544.9445     -2217.463      -249.80995      50658.333      37.001298      37.001298      37.001298      1.2298647      999.04723      1814.2677      586.51163    
    162000   162000         485.89975     -542.19447      3788.5987      4191.7438      5241.6686     -1049.9247      2103.0916      3008.1463     -1923.804       19.584758     -483.75772     -1546.6695     -2226.5161     -248.21626      50983.588      37.080319      37.080319      37.080319      1.2220187      767.87451     -1991.4994     -402.95847    
    163000   163000         484.55215      217.00472      4390.5935      4227.9442      5227.1313     -999.18708      2098.7273      3047.1024     -1912.9856      21.506665     -478.62219     -1546.7072     -2228.2084     -246.23717      51393.362      37.179397      37.179397      37.179397      1.2122752     -977.9844       425.18935      1203.8092    
    164000   164000         486.94365      337.96674      4510.7937      4259.6068      5252.9297     -993.3229       2064.7006      3048.5139     -1911.1236      21.128545     -445.70923     -1550.2774     -2220.5557     -248.32101      50962.082      37.075105      37.075105      37.075105      1.2225344      795.49368      342.69322     -124.28669    
    165000   165000         493.10091      494.18376      4778.1577      4407.8958      5319.3515     -911.4557       2098.1813      3032.7858     -1868.6844      18.751027     -419.97478     -1549.9306     -2222.584      -246.32924      51374.151      37.174764      37.174764      37.174764      1.2127285      1377.8594      260.22381     -155.53198    
    166000   166000         497.94888     -646.56223      3860.6413      4341.5448      5371.6492     -1030.1044      2103.3033      2988.1179     -1890.7497      19.825721     -475.02415     -1551.5584     -2224.0192     -248.13549      51000.185      37.084343      37.084343      37.084343      1.221621      -1107.9487      219.2285      -1050.9665    
    167000   167000         484.86729      1.6121585      4308.8337      4307.6167      5230.5309     -922.91415      2099.424       3093.4467     -1930.4256      19.887063     -437.17654     -1541.6889     -2226.3809     -244.49357      51759.871      37.267569      37.267569      37.267569      1.2036911      923.66438      1137.1345     -2055.9624    
    168000   168000         494.85376      1831.9559      5634.2869      4268.1791      5338.2605     -1070.0814      2034.6216      2993.8968     -1910.9467      21.220057     -428.71923     -1556.9268     -2223.2271     -247.49507      51132.152      37.116301      37.116301      37.116301      1.2184681      1890.6922      1580.5191      2024.6563    
    169000   169000         497.64101      411.14685      4453.6919      4146.8318      5368.3281     -1221.4963      2050.9578      2830.3382     -1873.1582      18.686744     -457.93744     -1562.7552     -2227.6283     -247.28232      51176.145      37.126943      37.126943      37.126943      1.2174207     -170.74935      2075.4779     -671.288      
    170000   170000         494.93244      101.67256      4400.4322      4324.3775      5339.1093     -1014.7318      2029.5039      3008.1748     -1864.1532      21.077768     -431.33513     -1557.4369     -2220.563      -246.72557      51291.627      37.154848      37.154848      37.154848      1.2146797      1032.3588     -36.219209     -691.12192    
    171000   171000         496.66144     -685.93367      3778.7996      4286.9632      5357.7609     -1070.7978      2073.7985      2969.6432     -1897.2983      19.437575     -459.5023      -1557.1459     -2219.7305     -249.12375      50797.87       37.03524       37.03524       37.03524       1.2264864     -406.77639     -934.83183     -716.1928     
    172000   172000         488.54689      1296.3418      5190.0578      4230.4856      5270.2248     -1039.7392      2105.2188      2935.1202     -1921.6788      20.191362     -401.85268     -1551.7919     -2224.9461     -249.3322       50755.401      37.024916      37.024916      37.024916      1.2275127      822.96613      1836.1579      1229.9015    
[...]
    955000   955000         312.91565     -544.89334     -513.13681     -141.38921      3375.5937     -3516.9829      1351.9638      1999.9887     -2062.2874      15.582275     -978.20659     -1597.7435     -2246.2803     -270.52029      46780.061      36.03188       36.03188       36.03188       1.3318259     -825.72986     -521.52744     -287.42272    
    956000   956000         310.8173      -304.72737     -353.3679      -146.27036      3352.9576     -3499.228       1364.4873      1999.2375     -2071.4936      15.872485     -960.72807     -1603.5723     -2243.0313     -271.56452      46600.18       35.985637      35.985637      35.985637      1.3369669      1264.5307     -735.11215     -1443.6007    
    957000   957000         315.81577      1279.3354      797.0034      -78.27559       3406.8789     -3485.1545      1292.7333      2042.63       -2045.0734      15.256505     -937.61649     -1604.7696     -2248.3148     -269.75806      46912.244      36.065786      36.065786      36.065786      1.3280733      1293.6147     -137.9385       2682.3299    
    958000   958000         305.73525      1270.1946      612.37061     -239.84092      3298.1347     -3537.9756      1299.6008      2018.2656     -2048.9752      14.836138     -965.73628     -1607.6846     -2248.2821     -275.08023      46004.6        35.831673      35.831673      35.831673      1.3542754      1415.0003      903.44267      1492.1408    
    959000   959000         306.56739      903.42366      399.96163     -215.58553      3307.1115     -3522.6971      1286.2347      2023.6097     -2092.6403      15.376216     -900.28537     -1607.7633     -2247.2286     -270.87358      46719.048      36.016209      36.016209      36.016209      1.3335652      649.29125      1346.2397      714.74006    
    960000   960000         311.04406     -1379.8812     -1044.167      -103.33154      3355.4038     -3458.7354      1354.1563      2031.7918     -2040.8579      16.207819     -975.16491     -1596.5566     -2248.3119     -270.68522      46751.558      36.024561      36.024561      36.024561      1.3326379     -1207.3616     -1109.3495     -1822.9325    
    961000   961000         305.00436      1015.6556      457.8383      -227.63231      3290.2502     -3517.8825      1341.4757      2004.3795     -2069.8323      15.269709     -957.93334     -1605.8339     -2245.4079     -273.46023      46277.135      35.90229       35.90229       35.90229       1.3462998      3115.2632     -551.46812      483.17184    
    962000   962000         310.56689      114.6582      -115.02906     -192.7217       3350.2564     -3542.9781      1324.988       1959.2158     -2040.348       15.347158     -947.93866     -1607.6112     -2246.6312     -272.37154      46462.108      35.950061      35.950061      35.950061      1.34094       -944.5638       7.4954914      1281.0429    
    963000   963000         305.36409      711.81659      292.74655     -192.28008      3294.1309     -3486.411       1309.8934      2035.4873     -2055.9977      15.690852     -945.9305      -1599.773      -2245.7813     -270.85636      46722.018      36.016972      36.016972      36.016972      1.3334805      1810.4972     -246.02302      570.97559    
    964000   964000         307.01112      1383.7822      671.1172      -273.19134      3311.8983     -3585.0896      1305.5287      1963.4938     -2077.5571      14.969812     -932.48734     -1612.1434     -2246.8941     -270.45209      46791.858      36.034909      36.034909      36.034909      1.3314901      2871.5343      41.782358      1238.0299    
    965000   965000         303.65545      690.88947      267.47911     -198.2962       3275.6989     -3473.9951      1336.2773      2039.195      -2089.4214      15.367383     -922.41299     -1607.7862     -2245.2142     -273.75915      46226.604      35.889218      35.889218      35.889218      1.3477715     -897.95412      597.14231      2373.4802    
    966000   966000         314.99246      547.33183      209.57091     -165.47372      3397.9974     -3563.4711      1292.0963      1958.5558     -2047.9556      15.088227     -928.50031     -1606.2622     -2246.4933     -269.34213      46984.688      36.084341      36.084341      36.084341      1.3260256      2661.1972     -1111.5867      92.384917    
    967000   967000         311.07896      461.61488      183.1804      -130.52944      3355.7803     -3486.3097      1320.3683      2039.3073     -2046.2028      15.144937     -968.36965     -1600.9473     -2245.6105     -271.57399      46598.555      35.985219      35.985219      35.985219      1.3370135      950.91207      454.40084     -20.468269    
    968000   968000         305.96271      565.64433      132.27937     -252.94541      3300.5885     -3553.5339      1316.1421      1991.9364     -2087.1665      15.600949     -943.24496     -1603.6722     -2243.1297     -270.99779      46697.635      36.010705      36.010705      36.010705      1.3341767      479.04574     -924.88857      2142.7758    
    969000   969000         312.4759       1485.9607      929.02893     -89.556203      3370.8498     -3460.406       1298.3249      2075.1987     -2066.9029      15.955828     -941.68233     -1597.1899     -2244.1104     -269.2443       47001.759      36.088711      36.088711      36.088711      1.325544       217.25157      1848.6788      2391.9519    
    970000   970000         303.56431      558.9314       73.517095     -303.04582      3274.7157     -3577.7615      1286.0977      1977.2534     -2040.6858      15.016393     -961.37906     -1603.3043     -2250.7599     -273.94128      46195.87       35.881263      35.881263      35.881263      1.3486681      582.16481      995.18453      99.444862    
    971000   971000         307.62543     -1164.6065     -936.12096     -145.3678       3318.5252     -3463.893       1319.8827      2108.1913     -2079.0761      16.786772     -987.13684     -1597.7225     -2244.8183     -271.81585      46557.092      35.974543      35.974543      35.974543      1.3382042     -464.11894     -1835.5066     -1194.1939    
    972000   972000         303.42168     -582.38751     -669.80054     -273.20258      3273.177      -3546.3796      1292.4066      2029.1462     -2059.7847      15.891312     -972.57109     -1599.3141     -2252.1538     -271.01797      46694.157      36.009811      36.009811      36.009811      1.3342761     -1101.9714     -1161.7137      516.52257    
    973000   973000         303.21787     -540.37931     -716.11797     -350.45757      3270.9784     -3621.436       1273.1088      1969.624      -2054.1369      15.757147     -981.32752     -1602.3915     -2242.0699     -272.74532      46398.434      35.933631      35.933631      35.933631      1.3427802     -762.04627     -441.46554     -417.62611    
    974000   974000         310.04674     -840.04824     -751.59434     -171.45527      3344.6452     -3516.1005      1336.1898      1953.1425     -2052.7655      14.935619     -909.02485     -1610.0504     -2248.5276     -267.24441      47353.491      36.178509      36.178509      36.178509      1.3156981      1196.4835     -2059.6427     -1656.9855    
    975000   975000         313.84188     -1135.9023     -1022.0091     -249.97109      3385.5854     -3635.5565      1289.4694      1936.2905     -2038.7581      15.633056     -1001.796      -1592.1529     -2244.2426     -271.54315      46603.849      35.986582      35.986582      35.986582      1.3368617     -2171.549      -912.72866     -323.42931    
    976000   976000         300.33166     -1074.4922     -921.94479     -190.51723      3239.8432     -3430.3605      1344.7521      2067.0317     -2040.1903      15.774449     -963.03424     -1607.3809     -2247.3133     -271.12431      46675.843      36.005103      36.005103      36.005103      1.3347996     -2838.0117     -209.84272     -175.62208    
    977000   977000         305.07861      87.210979     -267.24968     -326.2164       3291.0512     -3617.2676      1304.5403      1948.4703     -2063.5996      14.642901     -962.18008     -1609.0496     -2250.0918     -272.96109      46361.758      35.924161      35.924161      35.924161      1.3438424      1273.8383      582.12772     -1594.3331    
    978000   978000         299.18162      186.63588     -190.83561     -318.2399       3227.4372     -3545.677       1302.6961      1972.4075     -2060.2858      15.245447     -924.89152     -1605.5369     -2245.3118     -270.36323      46807.237      36.038856      36.038856      36.038856      1.3310527     -338.93537      900.95089     -2.1078674    
    979000   979000         309.22432      437.78613      100.57156     -198.46669      3335.7733     -3534.24        1301.4995      1959.7517     -2038.1105      14.70517      -920.25571     -1604.3664     -2247.4637     -270.19156      46836.977      36.046488      36.046488      36.046488      1.3302075     -148.24777      1284.5533      177.05284    
    980000   980000         306.03475     -769.4766      -849.29        -322.77437      3301.3657     -3624.14        1287.8218      1939.5598     -2055.1133      15.462248     -964.00759     -1602.1691     -2245.6938     -269.72467      46918.05       36.067274      36.067274      36.067274      1.3279089     -347.91804     -2014.6263      54.114532    
    981000   981000         298.33557     -722.68948     -858.22025     -368.51924      3218.3104     -3586.8296      1295.5653      1965.8933     -2053.0172      14.476049     -956.92354     -1607.1833     -2245.6401     -272.36873      46462.586      35.950185      35.950185      35.950185      1.3409262     -1264.2799      733.88873     -1637.6773    
    982000   982000         297.82477      602.64882      54.203799     -356.73419      3212.8        -3569.5342      1276.5294      1978.1924     -2051.0112      16.452853     -936.02096     -1604.5291     -2249.1476     -270.66029      46755.864      36.025667      36.025667      36.025667      1.3325152      635.93634      631.75179      540.25834    
    983000   983000         298.14279     -191.07759     -457.20613     -326.78902      3216.2307     -3543.0197      1334.9415      1946.9249     -2057.5668      14.501133     -942.3385      -1598.2508     -2241.2312     -270.40312      46800.332      36.037084      36.037084      36.037084      1.3312491     -548.24287     -55.980631      30.990717    
    984000   984000         306.88072      570.54138      164.38579     -224.49251      3310.4916     -3534.9841      1280.1729      2029.9742     -2077.5391      16.182672     -943.2113      -1598.6379     -2241.9255     -270.77587      46735.907      36.020541      36.020541      36.020541      1.3330842     -475.35051      2473.1177     -286.14305    
    985000   985000         306.86303      260.2439      -124.31597     -300.69633      3310.3008     -3610.9971      1279.5114      1942.3251     -2051.2236      14.958965     -952.75142     -1599.785      -2244.0326     -272.31204      46472.259      35.952679      35.952679      35.952679      1.3406471      828.81541     -810.16003      762.07633    
    986000   986000         298.92073      367.44619     -121.07107     -370.30641      3224.6228     -3594.9292      1304.345       1949.5323     -2078.2512      14.707337     -943.79995     -1599.1966     -2242.2661     -272.09506      46509.319      35.962234      35.962234      35.962234      1.3395788     -598.76824     -496.00641      2197.1132    
    987000   987000         305.43114     -764.19844     -790.66704     -269.94111      3294.8542     -3564.7953      1293.5675      1971.324      -2056.8026      15.414917     -944.86611     -1596.5643     -2246.8686     -270.85289      46722.617      36.017126      36.017126      36.017126      1.3334634     -367.08367     -1051.9465     -873.56512    
    988000   988000         295.40795     -701.35468     -889.41145     -412.27488      3186.7285     -3599.0033      1273.1657      1947.4367     -2052.513       14.962511     -936.99615     -1602.5882     -2242.4708     -271.28858      46647.58       35.997834      35.997834      35.997834      1.3356084      153.69128     -1463.5799     -794.1754     
    989000   989000         297.76991     -1067.5221     -1184.8793     -461.87128      3212.2083     -3674.0796      1241.7372      1938.1875     -2059.2582      14.800865     -969.05138     -1597.1046     -2243.3908     -272.50237      46439.8        35.944307      35.944307      35.944307      1.3415841     -329.22038     -2446.3362     -427.00959    
    990000   990000         296.46094      781.86485      148.60999     -382.63655      3198.0876     -3580.7242      1271.8319      1934.906      -2050.6764      14.092606     -912.21772     -1601.6757     -2236.9849     -271.62647      46589.552      35.982901      35.982901      35.982901      1.3372719     -927.86481      822.25962      2451.1997    
    991000   991000         301.11128      58.119947     -301.82919     -341.49988      3248.2535     -3589.7533      1239.867       2001.3522     -2055.6362      15.739639     -947.81512     -1597.8282     -2245.4327     -270.39088      46802.45       36.037628      36.037628      36.037628      1.3311888     -700.53275      757.03882      117.85377    
    992000   992000         302.55611      1001.5692      367.72772     -325.43875      3263.8396     -3589.2784      1209.435       1996.8976     -2055.0696      15.295361     -905.50152     -1604.246      -2246.0891     -266.67355      47454.859      36.204306      36.204306      36.204306      1.3128876      1915.6115      50.754599      1038.3415    
    993000   993000         299.03919      1150.5342      336.22413     -443.16757      3225.9007     -3669.0682      1250.5485      1932.7844     -2053.9202      14.770177     -956.46809     -1609.7857     -2246.9973     -272.44591      46449.424      35.94679       35.94679       35.94679       1.3413061      1545.6261     -132.902        2038.8786    
    994000   994000         300.23227     -52.041956     -458.83138     -423.26752      3238.7711     -3662.0386      1239.8355      1922.5298     -2063.74        14.766713     -927.66246     -1602.8217     -2244.9465     -270.07306      46857.527      36.051759      36.051759      36.051759      1.3296241      243.22676     -2.327821      -397.02481    
    995000   995000         299.66643      489.98823      13.099848     -319.78802      3232.667      -3552.4551      1308.929       2019.4588     -2072.683       16.472794     -966.1124      -1608.5141     -2250.0061     -271.65907      46583.962      35.981462      35.981462      35.981462      1.3374323      113.4938       66.310824      1290.1601    
    996000   996000         298.58596      1574.5506      577.53452     -482.54508      3221.0115     -3703.5566      1232.1958      1908.3775     -2055.9382      16.06905      -950.10853     -1604.3228     -2249.8294     -274.12881      46164.268      35.873079      35.873079      35.873079      1.3495914      2230.2778      1327.4746      1165.8995    
    997000   997000         297.45302     -129.56651     -562.35917     -474.43347      3208.7898     -3683.2232      1275.7673      1908.3027     -2055.543       15.590779     -976.61707     -1604.1355     -2246.5885     -271.96524      46531.519      35.967955      35.967955      35.967955      1.3389397     -763.37383     -73.952666      448.62698    
    998000   998000         309.01477      722.73488      260.51743     -231.0242       3333.5128     -3564.537       1267.0872      2010.99       -2063.6334      16.203451     -952.6111      -1594.3368     -2248.2364     -271.36588      46634.293      35.994416      35.994416      35.994416      1.3359889      1954.612       369.38218     -155.78952    
    999000   999000         298.0888       1045.7484      307.26236     -401.19837      3215.6483     -3616.8466      1267.9827      1963.0007     -2049.5911      15.329318     -958.7437      -1604.3725     -2250.4521     -272.42562      46452.884      35.947682      35.947682      35.947682      1.3412062      1220.8763      1405.92        510.44884    
   1000000   1000000        293.78093      587.94386     -76.335544     -479.30598      3169.177      -3648.483       1192.4667      2036.5196     -2086.19        16.191171     -952.67515     -1604.934      -2249.8613     -269.27696      46996.058      36.087252      36.087252      36.087252      1.3257048      1380.5239     -803.19178      1186.4995    
Loop time of 1738.1 on 1 procs for 1000000 steps with 3620 atoms

Performance: 49.710 ns/day, 0.483 hours/ns, 575.342 timesteps/s, 2.083 Matom-step/s
100.0% CPU use with 1 MPI tasks x 1 OpenMP threads

MPI task timing breakdown:
Section |  min time  |  avg time  |  max time  |%varavg| %total
---------------------------------------------------------------
Pair    | 120.65     | 120.65     | 120.65     |   0.0 |  6.94
Bond    | 213.29     | 213.29     | 213.29     |   0.0 | 12.27
Kspace  | 918.37     | 918.37     | 918.37     |   0.0 | 52.84
Neigh   | 105.2      | 105.2      | 105.2      |   0.0 |  6.05
Comm    | 24.557     | 24.557     | 24.557     |   0.0 |  1.41
Output  | 4.6284     | 4.6284     | 4.6284     |   0.0 |  0.27
Modify  | 312.23     | 312.23     | 312.23     |   0.0 | 17.96
Other   |            | 39.17      |            |       |  2.25

Nlocal:           3620 ave        3620 max        3620 min
Histogram: 1 0 0 0 0 0 0 0 0 0
Nghost:          12283 ave       12283 max       12283 min
Histogram: 1 0 0 0 0 0 0 0 0 0
Neighs:              0 ave           0 max           0 min
Histogram: 1 0 0 0 0 0 0 0 0 0
FullNghs:  1.76511e+06 ave 1.76511e+06 max 1.76511e+06 min
Histogram: 1 0 0 0 0 0 0 0 0 0

Total # of neighbors = 1765112
Ave neighs/atom = 487.6
Ave special neighs/atom = 5.9723757
Neighbor list builds = 31725
Dangerous builds = 0

# --- Cleanup ---
unfix npt_fix

undump dump_npt

# --- Write Output ---
write_dump all custom npt_cool300_last.dump id type mol x y z xu yu zu vx vy vz modify sort id
write_data /home/alexzhao/PolyJarvis/data/PVC3/lammps/equil/npt_cool300/npt_cool300_out.data
System init for write_data ...
PPPM Kokkos initialization ...
  using 12-bit tables for long-range coulomb
  G vector (1/distance) = 0.29494866
  grid = 24 24 24
  stencil order = 5
  estimated absolute RMS force accuracy = 0.00038318884
  estimated relative force accuracy = 1.1539618e-06
  using double precision cuFFT
  3d grid and FFT values/proc = 29791 13824
Generated 6 of 6 mixed pair_coeff terms from sixthpower/sixthpower mixing rule

print "STAGE COMPLETE: NPT T=530.0->300.0K P=1.0->1.0atm steps=1000000"
STAGE COMPLETE: NPT T=530.0->300.0K P=1.0->1.0atm steps=1000000
quit
     |  2.25

Nlocal:           3620 ave        3620 max        3620 min
Histogram: 1 0 0 0 0 0 0 0 0 0
Nghost:          12283 ave       12283 max       12283 min
Histogram: 1 0 0 0 0 0 0 0 0 0
Neighs:              0 ave           0 max           0 min
Histogram: 1 0 0 0 0 0 0 0 0 0
FullNghs:  1.76511e+06 ave 1.76511e+06 max 1.76511e+06 min
Histogram: 1 0 0 0 0 0 0 0 0 0

Total # of neighbors = 1765112
Ave neighs/atom = 487.6
Ave special neighs/atom = 5.9723757
Neighbor list builds = 31725
Dangerous builds = 0
System init for write_data ...
PPPM Kokkos initialization ...
  using 12-bit tables for long-range coulomb
  G vector (1/distance) = 0.29494866
  grid = 24 24 24
  stencil order = 5
  estimated absolute RMS force accuracy = 0.00038318884
  estimated relative force accuracy = 1.1539618e-06
  using double precision cuFFT
  3d grid and FFT values/proc = 29791 13824
Generated 6 of 6 mixed pair_coeff terms from sixthpower/sixthpower mixing rule
STAGE COMPLETE: NPT T=530.0->300.0K P=1.0->1.0atm steps=1000000
